{
    "crystal structure":"\u200bface-centered cubic (fcc)",
    "per shell":"2, 8, 18, 32, 18, 9, 2",
    "molar heat capacity":"27.2 J/(mol\u00b7K)",
    "density":" near r.t.10 g/cm3",
    "oxidation states":"3, 2 \u200b(a neutral oxide)",
    "symbol":"actinium, Ac",
    "heat of vaporizatio":"400 kJ/mol",
    "atomic weight":" (Ar)(227)",
    "boiling point":"3500\u00b1300 K \u200b(3200\u00b1300 \u00b0C, \u200b5800\u00b1500 \u00b0F) (extrapolated)[2]",
    "heat of fusion":"14 kJ/mol",
    "category":"  actinide, sometimes considered a transition metal",
    "thermal conductivity":"12 W/(m\u00b7K)",
    "covalent radius":"215 pm",
    "phase":"solid",
    "Z":"89",
    "electronegativity":" 1.1",
    "appearance":"silvery-white, glowing with an eerie blue light;[1] sometimes with a golden cast[2]",
    "Group, block":"group n/a, f-block",
    "period":"period 7",
    "melting point":"1500 K \u200b(1227 \u00b0C, \u200b2240 \u00b0F) (estimated)[2]",
    "configuration":"[Rn] 6d1 7s2",
    "cas number":"7440-34-8"
}