{
    "crystal structure":"\u200bface-centered cubic (fcc)",
    "per shell":"2, 8, 3",
    "molar heat capacity":"24.20 J/(mol\u00b7K)",
    "density":" near r.t.2.70 g/cm3",
    "oxidation states":"+3, +2,[2] +1[3], \u22121, \u22122 \u200b(an amphoteric oxide)",
    "symbol":"aluminium, Al",
    "heat of vaporizatio":"284 kJ/mol",
    "magnetic ordering":"paramagnetic[4]",
    "atomic weight":" (\u00b1) (Ar)26.9815385(7)[1]",
    "boiling point":"2743 K \u200b(2470 \u00b0C, \u200b4478 \u00b0F)",
    "heat of fusion":"10.71 kJ/mol",
    "density liquid at mp":"2.375 g/cm3",
    "category":"  post-transition metal, sometimes considered a metalloid",
    "melting point":"933.47 K \u200b(660.32 \u00b0C, \u200b1220.58 \u00b0F)",
    "covalent radius":"121\u00b14 pm",
    "phase":"solid",
    "Z":"13",
    "electronegativity":" 1.61",
    "van der waals radius":"184 pm",
    "appearance":"silvery gray metallic",
    "Group, block":"group 13, p-block",
    "period":"period 3",
    "thermal conductivity":"237 W/(m\u00b7K)",
    "configuration":"[Ne] 3s2 3p1",
    "cas number":"7429-90-5",
    "speed of sound":" thin rod(rolled) 5000 m/s (at r.t.)"
}