{
    "crystal structure":"\u200bdouble hexagonal close-packed (dhcp)",
    "per shell":"2, 8, 18, 32, 25, 8, 2",
    "Z":"95",
    "density":" near r.t.12 g/cm3",
    "oxidation states":"8, 7, 6, 5, 4, 3, 2 \u200b(an amphoteric oxide)",
    "magnetic ordering":"paramagnetic",
    "atomic weight":" (Ar)(243)",
    "boiling point":"2880 K \u200b(2607 \u00b0C, \u200b4725 \u00b0F) (calculated)",
    "heat of fusion":"14.39 kJ/mol",
    "appearance":"silvery white",
    "thermal conductivity":"10 W/(m\u00b7K)",
    "covalent radius":"180\u00b16 pm",
    "phase":"solid",
    "category":"  actinide",
    "electronegativity":" 1.3",
    "symbol":"americium, Am",
    "Group, block":"group n/a, f-block",
    "period":"period 7",
    "melting point":"1449 K \u200b(1176 \u00b0C, \u200b2149 \u00b0F)",
    "molar heat capacity":"62.7 J/(mol\u00b7K)",
    "configuration":"[Rn] 5f7 7s2",
    "cas number":"7440-35-9"
}