{
    "crystal structure":"\u200brhombohedral",
    "per shell":"2, 8, 18, 18, 5",
    "molar heat capacity":"25.23 J/(mol\u00b7K)",
    "density":" near r.t.6.697 g/cm3",
    "oxidation states":"5, 4, 3, 2, 1, \u22121, \u22122, \u22123 \u200b(an amphoteric oxide)",
    "symbol":"antimony, Sb",
    "heat of vaporizatio":"193.43 kJ/mol",
    "magnetic ordering":"diamagnetic[2]",
    "atomic weight":" (\u00b1) (Ar)121.760(1)[1]",
    "boiling point":"1908 K \u200b(1635 \u00b0C, \u200b2975 \u00b0F)",
    "heat of fusion":"19.79 kJ/mol",
    "density liquid at mp":"6.53 g/cm3",
    "category":"  metalloid",
    "melting point":"903.78 K \u200b(630.63 \u00b0C, \u200b1167.13 \u00b0F)",
    "covalent radius":"139\u00b15 pm",
    "phase":"solid",
    "Z":"51",
    "electronegativity":" 2.05",
    "van der waals radius":"206 pm",
    "appearance":"silvery lustrous gray",
    "Group, block":"group 15 (pnictogens), p-block",
    "period":"period 5",
    "thermal conductivity":"24.4 W/(m\u00b7K)",
    "configuration":"[Kr] 4d10 5s2 5p3",
    "cas number":"7440-36-0",
    "speed of sound":"  thin rod3420 m/s (at 20 \u00b0C)"
}