{
    "crystal structure":"\u200brhombohedral",
    "per shell":"2, 8, 18, 5",
    "molar heat capacity":"24.64 J/(mol\u00b7K)",
    "density":" near r.t.5.727 g/cm3",
    "critical point":"1673 K, ? MPa",
    "oxidation states":"5, 4, 3, 2, 1,[3] \u22121, \u22122, \u22123 \u200b(a mildly acidic oxide)",
    "symbol":"arsenic, As",
    "heat of vaporizatio":"34.76 kJ/mol (?)",
    "magnetic ordering":"diamagnetic[5]",
    "triple point":"1090 K, \u200b3628 kPa[2]",
    "atomic weight":" (\u00b1) (Ar)74.921595(6)[1]",
    "heat of fusion":"grey: 24.44 kJ/mol",
    "density liquid at mp":"5.22 g/cm3",
    "category":"  metalloid",
    "thermal conductivity":"50.2 W/(m\u00b7K)",
    "covalent radius":"119\u00b14 pm",
    "phase":"solid",
    "Z":"33",
    "electronegativity":" 2.18",
    "van der waals radius":"185 pm",
    "appearance":"metallic grey",
    "Group, block":"group 15 (pnictogens), p-block",
    "period":"period 4",
    "configuration":"[Ar] 3d10 4s2 4p3",
    "cas number":"7440-38-2"
}