{
    "crystal structure":"\u200bface-centered cubic (fcc)\n(predicted)[2]",
    "per shell":"2, 8, 18, 32, 18, 7",
    "Z":"85",
    "density":" near r.t.(At2) 6.35\u00b10.15 g/cm3 (predicted)[3]",
    "oxidation states":"\u22121, +1, +3, +5, +7[5]",
    "heat of vaporizatio":"(At2) 54.39 kJ/mol[4]",
    "atomic weight":" (Ar)(210)",
    "boiling point":"610 K \u200b(337 \u00b0C, \u200b639 \u00b0F)",
    "heat of fusion":"ca. 6 kJ/mol",
    "appearance":"unknown, probably metallic",
    "thermal conductivity":"1.7 W/(m\u00b7K)",
    "covalent radius":"150 pm",
    "phase":"solid",
    "category":"  metalloid, sometimes classified as a nonmetal, or a metal[1][2]",
    "electronegativity":" 2.2",
    "van der waals radius":"202 pm",
    "symbol":"astatine, At",
    "Group, block":"group 17 (halogens), p-block",
    "period":"period 6",
    "melting point":"575 K \u200b(302 \u00b0C, \u200b576 \u00b0F)",
    "configuration":"[Xe] 4f14 5d10 6s2 6p5",
    "cas number":"7440-68-8"
}