{
    "crystal structure":"\u200bhexagonal close-packed (hcp)",
    "per shell":"2, 2",
    "Z":"4",
    "density":" near r.t.1.85 g/cm3",
    "critical point":"5205 K,  MPa (extrapolated)",
    "oxidation states":"+2, +1[2] \u200b(an amphoteric oxide)",
    "heat of vaporizatio":"292 kJ/mol",
    "magnetic ordering":"diamagnetic",
    "atomic weight":" (\u00b1) (Ar)9.0121831(5)[1]",
    "boiling point":"2742 K \u200b(2469 \u00b0C, \u200b4476 \u00b0F)",
    "heat of fusion":"12.2 kJ/mol",
    "density liquid at mp":"1.690 g/cm3",
    "appearance":"white-gray metallic",
    "melting point":"1560 K \u200b(1287 \u00b0C, \u200b2349 \u00b0F)",
    "covalent radius":"96\u00b13 pm",
    "phase":"solid",
    "category":"  alkaline earth metal",
    "electronegativity":" 1.57",
    "van der waals radius":"153 pm",
    "symbol":"beryllium, Be",
    "Group, block":"group 2 (alkaline earth metals), s-block",
    "period":"period 2",
    "thermal conductivity":"200 W/(m\u00b7K)",
    "molar heat capacity":"16.443 J/(mol\u00b7K)",
    "configuration":"[He] 2s2",
    "cas number":"7440-41-7",
    "speed of sound":" thin rod12,890 m/s (at r.t.)[3]"
}