{
    "crystal structure":"\u200brhombohedral[2]",
    "per shell":"2, 8, 18, 32, 18, 5",
    "molar heat capacity":"25.52 J/(mol\u00b7K)",
    "density":" near r.t.9.78 g/cm3",
    "oxidation states":"5, 4, 3, 2, 1, \u22121, \u22122, \u22123 \u200b(a mildly acidic oxide)",
    "symbol":"bismuth, Bi",
    "heat of vaporizatio":"179 kJ/mol",
    "magnetic ordering":"diamagnetic",
    "atomic weight":" (\u00b1) (Ar)208.98040(1)[1]",
    "boiling point":"1837 K \u200b(1564 \u00b0C, \u200b2847 \u00b0F)",
    "heat of fusion":"11.30 kJ/mol",
    "density liquid at mp":"10.05 g/cm3",
    "category":"  post-transition metal",
    "melting point":"544.7 K \u200b(271.5 \u00b0C, \u200b520.7 \u00b0F)",
    "covalent radius":"148\u00b14 pm",
    "phase":"solid",
    "Z":"83",
    "electronegativity":" 2.02",
    "van der waals radius":"207 pm",
    "appearance":"lustrous brownish silver",
    "Group, block":"group 15 (pnictogens), p-block",
    "period":"period 6",
    "thermal conductivity":"7.97 W/(m\u00b7K)",
    "configuration":"[Xe] 4f14 5d10 6s2 6p3",
    "cas number":"7440-69-9",
    "speed of sound":"  thin rod1790 m/s (at 20 \u00b0C)"
}