{
    "crystal structure":"\u200brhombohedral",
    "per shell":"2, 3",
    "molar heat capacity":"11.087 J/(mol\u00b7K)",
    "density":" when liquid, at m.p.2.08 g/cm3",
    "oxidation states":"3, 2, 1, \u22121, \u22125[4][5] \u200b(a mildly acidic oxide)",
    "symbol":"boron, B",
    "heat of vaporizatio":"508 kJ/mol",
    "magnetic ordering":"diamagnetic[7]",
    "atomic weight":" (Ar)10.81[2] (10.806\u201310.821)[3]",
    "boiling point":"4200 K \u200b(3927 \u00b0C, \u200b7101 \u00b0F)",
    "heat of fusion":"50.2 kJ/mol",
    "category":"  metalloid",
    "melting point":"2349 K \u200b(2076 \u00b0C, \u200b3769 \u00b0F)",
    "covalent radius":"84\u00b13 pm",
    "phase":"solid",
    "Z":"5",
    "electronegativity":" 2.04",
    "van der waals radius":"192 pm",
    "appearance":"black-brown",
    "Group, block":"group 13, p-block",
    "period":"period 2",
    "thermal conductivity":"27.4 W/(m\u00b7K)",
    "configuration":"[He] 2s2 2p1",
    "cas number":"7440-42-8",
    "speed of sound":"  thin rod16,200 m/s (at 20 \u00b0C)"
}