{
    "crystal structure":"\u200borthorhombic",
    "per shell":"2, 8, 18, 7",
    "Z":"35",
    "density":" near r.t.Br2, liquid: 3.1028 g/cm3",
    "critical point":"588 K, 10.34 MPa[3]",
    "oxidation states":"7, 5, 4, 3, 1, \u22121 \u200b(a strongly acidic oxide)",
    "heat of vaporizatio":"(Br2) 29.96 kJ/mol",
    "magnetic ordering":"diamagnetic[4]",
    "triple point":"265.90 K, \u200b5.8 kPa[3]",
    "atomic weight":" (Ar)79.904[1] (79.901\u201379.907)[2]",
    "boiling point":"332.0 K \u200b(58.8 \u00b0C, \u200b137.8 \u00b0F)",
    "heat of fusion":"(Br2) 10.571 kJ/mol",
    "appearance":"gas/liquid: red-brown\nsolid: metallic luster",
    "melting point":"265.8 K \u200b(\u22127.2 \u00b0C, \u200b19 \u00b0F)",
    "covalent radius":"120\u00b13 pm",
    "phase":"liquid",
    "category":"  diatomic nonmetal",
    "electronegativity":" 2.96",
    "van der waals radius":"185 pm",
    "symbol":"bromine, Br",
    "Group, block":"group 17 (halogens), p-block",
    "period":"period 4",
    "thermal conductivity":"0.122 W/(m\u00b7K)",
    "molar heat capacity":"(Br2) 75.69 J/(mol\u00b7K)",
    "configuration":"[Ar] 3d10 4s2 4p5",
    "cas number":"7726-95-6",
    "speed of sound":"206 m/s (at 20 \u00b0C)"
}