{
    "crystal structure":"\u200bhexagonal close-packed (hcp)",
    "per shell":"2, 8, 18, 18, 2",
    "molar heat capacity":"26.020 J/(mol\u00b7K)",
    "density":" near r.t.8.65 g/cm3",
    "oxidation states":"2, 1, \u22122 \u200b(a mildly basic oxide)",
    "symbol":"cadmium, Cd",
    "heat of vaporizatio":"99.87 kJ/mol",
    "magnetic ordering":"diamagnetic[2]",
    "atomic weight":" (\u00b1) (Ar)112.414(4)[1]",
    "boiling point":"1040 K \u200b(767 \u00b0C, \u200b1413 \u00b0F)",
    "heat of fusion":"6.21 kJ/mol",
    "density liquid at mp":"7.996 g/cm3",
    "category":"  transition metal, alternatively considered a post-transition metal",
    "melting point":"594.22 K \u200b(321.07 \u00b0C, \u200b609.93 \u00b0F)",
    "covalent radius":"144\u00b19 pm",
    "phase":"solid",
    "Z":"48",
    "electronegativity":" 1.69",
    "van der waals radius":"158 pm",
    "appearance":"silvery bluish-gray metallic",
    "Group, block":"group 12, d-block",
    "period":"period 5",
    "thermal conductivity":"96.6 W/(m\u00b7K)",
    "configuration":"[Kr] 4d10 5s2",
    "cas number":"7440-43-9",
    "speed of sound":"  thin rod2310 m/s (at 20 \u00b0C)"
}