{
    "crystal structure":"\u200bbody-centred cubic (bcc)",
    "per shell":"2, 8, 18, 18, 8, 1",
    "Z":"55",
    "density":" near r.t.1.93 g/cm3",
    "critical point":"1938 K, 9.4 MPa[2]",
    "oxidation states":"+1, \u22121[3] \u200b(a strongly basic oxide)",
    "heat of vaporizatio":"63.9 kJ/mol",
    "magnetic ordering":"paramagnetic[4]",
    "atomic weight":" (\u00b1) (Ar)132.90545196(6)[1]",
    "boiling point":"944 K \u200b(671 \u00b0C, \u200b1240 \u00b0F)",
    "heat of fusion":"2.09 kJ/mol",
    "density liquid at mp":"1.843 g/cm3",
    "appearance":"silvery gold",
    "melting point":"301.7 K \u200b(28.5 \u00b0C, \u200b83.3 \u00b0F)",
    "covalent radius":"244\u00b111 pm",
    "phase":"solid",
    "category":"  alkali metal",
    "electronegativity":" 0.79",
    "van der waals radius":"343 pm",
    "symbol":"caesium, Cs",
    "Group, block":"group 1 (alkali metals), s-block",
    "period":"period 6",
    "thermal conductivity":"35.9 W/(m\u00b7K)",
    "molar heat capacity":"32.210 J/(mol\u00b7K)",
    "configuration":"[Xe] 6s1",
    "cas number":"7440-46-2"
}