{
    "crystal structure":"\u200bdouble hexagonal close-packed (dhcp)",
    "per shell":"2, 8, 18, 32, 28, 8, 2",
    "Z":"98",
    "category":"  actinide",
    "electronegativity":" 1.3[5]",
    "density":" near r.t.15.1 g/cm3[1]",
    "appearance":"silvery",
    "Group, block":"group n/a, f-block",
    "boiling point":"1743 K \u200b(1470 \u00b0C, \u200b2678 \u00b0F) (estimation)[3]",
    "period":"period 7",
    "oxidation states":"2, 3, 4[4]",
    "configuration":"[Rn] 5f10 7s2[2]",
    "cas number":"7440-71-3[1]",
    "phase":"solid",
    "atomic weight":" (Ar)(251)[1]",
    "symbol":"californium, Cf",
    "melting point":"1173 K \u200b(900 \u00b0C, \u200b1652 \u00b0F)[1]"
}