{
    "covalent radius":"169\u00b13 pm",
    "per shell":"2, 8, 18, 32, 25, 9, 2",
    "Z":"96",
    "category":"  actinide",
    "electronegativity":" 1.3",
    "density":" near r.t.13.51 g/cm3",
    "appearance":"silvery metallic, glows purple in the dark",
    "Group, block":"group n/a, f-block",
    "boiling point":"3383 K \u200b(3110 \u00b0C, \u200b5630 \u00b0F)",
    "period":"period 7",
    "oxidation states":"6,[1] 4, 3, 2 \u200b(an amphoteric oxide)",
    "configuration":"[Rn] 5f7 6d1 7s2",
    "crystal structure":"\u200bdouble hexagonal close-packed (dhcp)",
    "cas number":"7440-51-9",
    "phase":"solid",
    "magnetic ordering":"antiferromagnetic-paramagnetic transition at 52 K[2]",
    "atomic weight":" (Ar)(247)",
    "heat of fusion":"13.85 kJ/mol",
    "symbol":"curium, Cm",
    "melting point":"1613 K \u200b(1340 \u00b0C, \u200b2444 \u00b0F)"
}