{
    "crystal structure":"\u200bface-centered cubic (fcc)",
    "per shell":"2, 8, 18, 32, 29, 8, 2",
    "Z":"99",
    "category":"  actinide",
    "electronegativity":" 1.3",
    "density":" near r.t.8.84 g/cm3",
    "appearance":"silver-colored",
    "Group, block":"group n/a, f-block",
    "boiling point":"1269 K \u200b(996 \u00b0C, \u200b1825 \u00b0F) (estimated)",
    "period":"period 7",
    "oxidation states":"2, 3, 4",
    "configuration":"[Rn] 5f11 7s2",
    "cas number":"7429-92-7",
    "phase":"solid",
    "magnetic ordering":"paramagnetic",
    "atomic weight":" (Ar)(252)",
    "symbol":"einsteinium, Es",
    "melting point":"1133 K \u200b(860 \u00b0C, \u200b1580 \u00b0F)"
}