{
    "crystal structure":"\u200bhexagonal close-packed (hcp)",
    "per shell":"2, 8, 18, 30, 8, 2",
    "molar heat capacity":"28.12 J/(mol\u00b7K)",
    "density":" near r.t.9.066 g/cm3",
    "oxidation states":"3, 2, 1 \u200b(a basic oxide)",
    "symbol":"erbium, Er",
    "heat of vaporizatio":"280 kJ/mol",
    "magnetic ordering":"paramagnetic at 300 K",
    "atomic weight":" (\u00b1) (Ar)167.259(3)[1]",
    "boiling point":"3141 K \u200b(2868 \u00b0C, \u200b5194 \u00b0F)",
    "heat of fusion":"19.90 kJ/mol",
    "density liquid at mp":"8.86 g/cm3",
    "category":"  lanthanide",
    "melting point":"1802 K \u200b(1529 \u00b0C, \u200b2784 \u00b0F)",
    "covalent radius":"189\u00b16 pm",
    "phase":"solid",
    "Z":"68",
    "electronegativity":" 1.24",
    "appearance":"silvery white",
    "Group, block":"group n/a, f-block",
    "period":"period 6",
    "thermal conductivity":"14.5 W/(m\u00b7K)",
    "configuration":"[Xe] 4f12 6s2",
    "cas number":"7440-52-0",
    "speed of sound":"  thin rod2830 m/s (at 20 \u00b0C)"
}