{
    "density liquid at bp":"1.505 g/cm3[5]",
    "crystal structure":"\u200bcubic",
    "per shell":"2, 7",
    "Z":"9",
    "density":" at stp (0 \u00b0C and 101.325 kPa)1.696 g/L[4]",
    "critical point":"144.41 K, 5.1724 MPa[3]",
    "oxidation states":"\u22121 \u200b(oxidizes oxygen)",
    "heat of vaporizatio":"6.51 kJ/mol[4]",
    "magnetic ordering":"diamagnetic (\u22121.2\u00d710\u22124)[10][11]",
    "triple point":"53.48 K, \u200b90 kPa[3]",
    "atomic weight":" (\u00b1) (Ar)18.998403163(6)[1]",
    "boiling point":"85.03 K \u200b(\u2212188.11 \u00b0C, \u200b\u2212306.60 \u00b0F)[3]",
    "appearance":"gas: very pale yellow\nliquid: bright yellow\nsolid: alpha is opaque, beta is transparent",
    "melting point":"53.48 K \u200b(\u2212219.67 \u00b0C, \u200b\u2212363.41 \u00b0F)[3]",
    "covalent radius":"64 pm[7]",
    "phase":"gas",
    "category":"  diatomic nonmetal",
    "electronegativity":" 3.98[2]",
    "van der waals radius":"135 pm[8]",
    "symbol":"fluorine, F",
    "Group, block":"group 17 (halogens), p-block",
    "period":"period 2",
    "thermal conductivity":"0.02591 W/(m\u00b7K)[9]",
    "molar heat capacity":"Cp: 31 J/(mol\u00b7K)[5] (at 21.1 \u00b0C)\nCv: 23 J/(mol\u00b7K)[5] (at 21.1 \u00b0C)",
    "configuration":"[He] 2s2 2p5[2]",
    "cas number":"7782-41-4[2]"
}