{
    "crystal structure":"\u200bbody-centered cubic (bcc)\n(extrapolated)",
    "per shell":"2, 8, 18, 32, 18, 8, 1",
    "category":"  alkali metal",
    "density":" near r.t.1.87 g/cm3 (extrapolated)",
    "oxidation states":"+1 \u200b(a strongly basic oxide)",
    "heat of vaporizatio":"ca. 65 kJ/mol",
    "magnetic ordering":"Paramagnetic",
    "atomic weight":" (Ar)(223)",
    "boiling point":"? 950 K \u200b(677 \u00b0C, \u200b1250 \u00b0F)",
    "heat of fusion":"ca. 2 kJ/mol",
    "symbol":"francium, Fr",
    "thermal conductivity":"15 W/(m\u00b7K) (extrapolated)",
    "covalent radius":"260 pm (extrapolated)",
    "phase":"solid presumably",
    "Z":"87",
    "electronegativity":" 0.7",
    "van der waals radius":"348 pm (extrapolated)",
    "Group, block":"group 1 (alkali metals), s-block",
    "period":"period 7",
    "melting point":"? 300 K \u200b(27 \u00b0C, \u200b80 \u00b0F)",
    "configuration":"[Rn] 7s1",
    "cas number":"7440-73-5"
}