{
    "crystal structure":"\u200bhexagonal close-packed (hcp)",
    "per shell":"2, 8, 18, 25, 9, 2",
    "molar heat capacity":"37.03 J/(mol\u00b7K)",
    "density":" near r.t.7.90 g/cm3",
    "oxidation states":"1, 2, 3 \u200b(a mildly basic oxide)",
    "symbol":"gadolinium, Gd",
    "heat of vaporizatio":"301.3 kJ/mol",
    "magnetic ordering":"ferromagnetic-paramagnetic transition at 293.4 K",
    "atomic weight":" (\u00b1) (Ar)157.25(3)[1]",
    "boiling point":"3273 K \u200b(3000 \u00b0C, \u200b5432 \u00b0F)",
    "heat of fusion":"10.05 kJ/mol",
    "density liquid at mp":"7.4 g/cm3",
    "category":"  lanthanide",
    "melting point":"1585 K \u200b(1312 \u00b0C, \u200b2394 \u00b0F)",
    "covalent radius":"196\u00b16 pm",
    "phase":"solid",
    "Z":"64",
    "electronegativity":" 1.20",
    "appearance":"silvery white",
    "Group, block":"group n/a, f-block",
    "period":"period 6",
    "thermal conductivity":"10.6 W/(m\u00b7K)",
    "configuration":"[Xe] 4f7 5d1 6s2",
    "cas number":"7440-54-2",
    "speed of sound":"  thin rod2680 m/s (at 20 \u00b0C)"
}