{
    "crystal structure":"\u200bface-centered diamond-cubic",
    "per shell":"2, 8, 18, 4",
    "molar heat capacity":"23.222 J/(mol\u00b7K)",
    "density":" near r.t.5.323 g/cm3",
    "oxidation states":"4, 3, 2, 1, 0, \u22121, \u22122, \u22123, \u22124 \u200b(an amphoteric oxide)",
    "symbol":"germanium, Ge",
    "heat of vaporizatio":"334 kJ/mol",
    "magnetic ordering":"diamagnetic[2]",
    "atomic weight":" (\u00b1) (Ar)72.630(8)[1]",
    "boiling point":"3106 K \u200b(2833 \u00b0C, \u200b5131 \u00b0F)",
    "heat of fusion":"36.94 kJ/mol",
    "density liquid at mp":"5.60 g/cm3",
    "category":"  metalloid",
    "melting point":"1211.40 K \u200b(938.25 \u00b0C, \u200b1720.85 \u00b0F)",
    "covalent radius":"122 pm",
    "phase":"solid",
    "Z":"32",
    "electronegativity":" 2.01",
    "van der waals radius":"211 pm",
    "appearance":"grayish-white",
    "Group, block":"group 14 (carbon group), p-block",
    "period":"period 4",
    "thermal conductivity":"60.2 W/(m\u00b7K)",
    "configuration":"[Ar] 3d10 4s2 4p2",
    "cas number":"7440-56-4",
    "speed of sound":"  thin rod5400 m/s (at 20 \u00b0C)"
}