{
    "crystal structure":"\u200bface-centered cubic (fcc)",
    "per shell":"2, 8, 18, 32, 18, 1",
    "molar heat capacity":"25.418 J/(mol\u00b7K)",
    "density":" near r.t.19.30 g/cm3",
    "oxidation states":"5, 3, 2, 1, \u22121, \u22122, \u22123 \u200b(an amphoteric oxide)",
    "symbol":"gold, Au",
    "heat of vaporizatio":"342 kJ/mol",
    "magnetic ordering":"diamagnetic[2]",
    "atomic weight":" (\u00b1) (Ar)196.966569(5)[1]",
    "boiling point":"3243 K \u200b(2970 \u00b0C, \u200b5378 \u00b0F)",
    "heat of fusion":"12.55 kJ/mol",
    "density liquid at mp":"17.31 g/cm3",
    "category":"  transition metal",
    "melting point":"1337.33 K \u200b(1064.18 \u00b0C, \u200b1947.52 \u00b0F)",
    "covalent radius":"136\u00b16 pm",
    "phase":"solid",
    "Z":"79",
    "electronegativity":" 2.54",
    "van der waals radius":"166 pm",
    "appearance":"metallic yellow",
    "Group, block":"group 11, d-block",
    "period":"period 6",
    "thermal conductivity":"318 W/(m\u00b7K)",
    "configuration":"[Xe] 4f14 5d10 6s1",
    "cas number":"7440-57-5",
    "speed of sound":" thin rod2030 m/s (at r.t.)"
}