{
    "density liquid at bp":"0.07099 g/cm3",
    "crystal structure":"\u200bhexagonal",
    "per shell":"1",
    "Z":"1",
    "density":" at stp (0 \u00b0C and 101.325 kPa)0.08988 g/L",
    "critical point":"32.938 K, 1.2858 MPa",
    "oxidation states":"\u22121, +1 \u200b(an amphoteric oxide)",
    "heat of vaporizatio":"(H2) 0.904 kJ/mol",
    "magnetic ordering":"diamagnetic[5]",
    "triple point":"13.8033 K, \u200b7.041 kPa",
    "atomic weight":" (Ar)1.008[2] (1.00784\u20131.00811)[3]",
    "boiling point":"20.271 K \u200b(\u2212252.879 \u00b0C, \u200b\u2212423.182 \u00b0F)",
    "heat of fusion":"(H2) 0.117 kJ/mol",
    "density liquid at mp":"0.07 g/cm3 (solid: 0.0763 g\u00b7cm\u22123)[4]",
    "appearance":"colorless gas",
    "melting point":"13.99 K \u200b(\u2212259.16 \u00b0C, \u200b\u2212434.49 \u00b0F)",
    "covalent radius":"31\u00b15 pm",
    "phase":"gas",
    "category":"  diatomic nonmetal, could be considered metalloid",
    "electronegativity":" 2.20",
    "van der waals radius":"120 pm",
    "symbol":"hydrogen, H",
    "Group, block":"group 1, s-block",
    "period":"period 1",
    "thermal conductivity":"0.1805 W/(m\u00b7K)",
    "molar heat capacity":"(H2) 28.836 J/(mol\u00b7K)",
    "configuration":"1s1",
    "cas number":"1333-74-0",
    "speed of sound":"1310 m/s (gas, 27 \u00b0C)",
    "color":"colorless"
}