{
    "crystal structure":"\u200bface-centered cubic (fcc)",
    "per shell":"2, 8, 18, 32, 15, 2",
    "molar heat capacity":"25.10 J/(mol\u00b7K)",
    "density":" near r.t.22.56 g/cm3",
    "oxidation states":"\u22123, \u22121, 0, 1, 2, 3, 4, 5, 6, 7, 8, 9[2]",
    "symbol":"iridium, Ir",
    "heat of vaporizatio":"564 kJ/mol",
    "magnetic ordering":"paramagnetic[3]",
    "atomic weight":" (\u00b1) (Ar)192.217(3)[1]",
    "boiling point":"4403 K \u200b(4130 \u00b0C, \u200b7466 \u00b0F)",
    "heat of fusion":"41.12 kJ/mol",
    "density liquid at mp":"19 g/cm3",
    "category":"  transition metal",
    "melting point":"2719 K \u200b(2446 \u00b0C, \u200b4435 \u00b0F)",
    "covalent radius":"141\u00b16 pm",
    "phase":"solid",
    "Z":"77",
    "electronegativity":" 2.20",
    "appearance":"silvery white",
    "Group, block":"group 9, d-block",
    "period":"period 6",
    "thermal conductivity":"147 W/(m\u00b7K)",
    "configuration":"[Xe] 4f14 5d7 6s2",
    "cas number":"7439-88-5",
    "speed of sound":"  thin rod4825 m/s (at 20 \u00b0C)"
}