{
    "density liquid at bp":"2.413 g/cm3[2]",
    "crystal structure":"\u200bface-centered cubic (fcc)",
    "per shell":"2, 8, 18, 8",
    "Z":"36",
    "density":" at stp (0 \u00b0C and 101.325 kPa)3.749 g/L",
    "critical point":"209.48 K, 5.525 MPa[4]",
    "oxidation states":"2, 1, 0 \u200b(rarely more than 0; unknown oxide)",
    "heat of vaporizatio":"9.08 kJ/mol",
    "magnetic ordering":"diamagnetic[6]",
    "triple point":"115.775 K, \u200b73.53 kPa[3][4]",
    "atomic weight":" (\u00b1) (Ar)83.798(2)[1]",
    "boiling point":"119.93 K \u200b(\u2212153.415 \u00b0C, \u200b\u2212244.147 \u00b0F)",
    "heat of fusion":"1.64 kJ/mol",
    "appearance":"colorless gas, exhibiting a whitish glow in a high electric field",
    "melting point":"115.78 K \u200b(\u2212157.37 \u00b0C, \u200b\u2212251.27 \u00b0F)",
    "covalent radius":"116\u00b14 pm",
    "phase":"gas",
    "category":"  noble gas",
    "electronegativity":" 3.00",
    "van der waals radius":"202 pm",
    "symbol":"krypton, Kr",
    "Group, block":"group 18 (noble gases), p-block",
    "period":"period 4",
    "thermal conductivity":"9.43\u00d710\u22123  W/(m\u00b7K)",
    "molar heat capacity":"20.95[5] J/(mol\u00b7K)",
    "configuration":"[Ar] 3d10 4s2 4p6",
    "cas number":"7439-90-9",
    "speed of sound":"(gas, 23 \u00b0C) 220 m\u00b7s\u22121\n(liquid) 1120 m/s"
}