{
    "crystal structure":"\u200bdouble hexagonal close-packed (dhcp)",
    "per shell":"2, 8, 18, 18, 9, 2",
    "molar heat capacity":"27.11 J/(mol\u00b7K)",
    "density":" near r.t.6.162 g/cm3",
    "oxidation states":"3, 2, 1 \u200b(a strongly basic oxide)",
    "symbol":"lanthanum, La",
    "heat of vaporizatio":"400 kJ/mol",
    "magnetic ordering":"paramagnetic[2]",
    "atomic weight":" (\u00b1) (Ar)138.90547(7)[1]",
    "boiling point":"3737 K \u200b(3464 \u00b0C, \u200b6267 \u00b0F)",
    "heat of fusion":"6.20 kJ/mol",
    "density liquid at mp":"5.94 g/cm3",
    "category":"  lanthanide, sometimes considered a transition metal",
    "melting point":"1193 K \u200b(920 \u00b0C, \u200b1688 \u00b0F)",
    "covalent radius":"207\u00b18 pm",
    "phase":"solid",
    "Z":"57",
    "electronegativity":" 1.10",
    "appearance":"silvery white",
    "Group, block":"group n/a, f-block",
    "period":"period 6",
    "thermal conductivity":"13.4 W/(m\u00b7K)",
    "configuration":"[Xe] 5d1 6s2",
    "cas number":"7439-91-0",
    "speed of sound":"  thin rod2475 m/s (at 20 \u00b0C)"
}