{
    "covalent radius":"162\u2013166 pm (extrapolated)[2]",
    "per shell":"2, 8, 18, 32, 32, 18, 6 (predicted)",
    "category":"unknown, but probably a post-transition metal",
    "Z":"116",
    "density":" near r.t.12.9 g/cm3 (predicted)[1]",
    "Group, block":"group 16 (chalcogens), p-block",
    "boiling point":"1035\u20131135 K \u200b(762\u2013862 \u00b0C, \u200b1403\u20131583 \u00b0F) (extrapolated)[2]",
    "period":"period 7",
    "oxidation states":"\u22122,[4] +2, +4 \u200b(predicted)[1]",
    "heat of vaporizatio":"42 kJ/mol (predicted)[3]",
    "configuration":"[Rn] 5f14 6d10 7s2 7p4 (predicted)[1]",
    "cas number":"54100-71-9",
    "phase":"solid (predicted)[1][2]",
    "atomic weight":" (Ar)[293]",
    "heat of fusion":"7.61 kJ/mol (extrapolated)[2]",
    "symbol":"livermorium, Lv",
    "melting point":"637\u2013780 K \u200b(364\u2013507 \u00b0C, \u200b687\u2013944 \u00b0F) (extrapolated)[2]"
}