{
    "crystal structure":"\u200bhexagonal close-packed (hcp)",
    "per shell":"2, 8, 2",
    "molar heat capacity":"24.869 J/(mol\u00b7K)",
    "density":" near r.t.1.738 g/cm3",
    "oxidation states":"+2, +1[3] \u200b(a strongly basic oxide)",
    "symbol":"magnesium, Mg",
    "heat of vaporizatio":"128 kJ/mol",
    "magnetic ordering":"paramagnetic",
    "atomic weight":" (Ar)24.305[1] (24.304\u201324.307)[2]",
    "boiling point":"1363 K \u200b(1091 \u00b0C, \u200b1994 \u00b0F)",
    "heat of fusion":"8.48 kJ/mol",
    "density liquid at mp":"1.584 g/cm3",
    "category":"  alkaline earth metal",
    "melting point":"923 K \u200b(650 \u00b0C, \u200b1202 \u00b0F)",
    "covalent radius":"141\u00b17 pm",
    "phase":"solid",
    "Z":"12",
    "electronegativity":" 1.31",
    "van der waals radius":"173 pm",
    "appearance":"shiny grey solid",
    "Group, block":"group 2 (alkaline earth metals), s-block",
    "period":"period 3",
    "thermal conductivity":"156 W/(m\u00b7K)",
    "configuration":"[Ne] 3s2",
    "cas number":"7439-95-4",
    "speed of sound":" thin rod4940 m/s (at r.t.) (annealed)"
}