{
    "crystal structure":"\u200brhombohedral",
    "per shell":"2, 8, 18, 32, 18, 2",
    "Z":"80",
    "density":" near r.t.13.534 g/cm3",
    "critical point":"1750 K, 172.00 MPa",
    "oxidation states":"4, 2 (mercuric), 1 (mercurous), \u22122 \u200b(a mildly basic oxide)",
    "heat of vaporizatio":"59.11 kJ/mol",
    "magnetic ordering":"diamagnetic[2]",
    "triple point":"234.3156 K, \u200b1.65\u00d710\u22127 kPa",
    "atomic weight":" (\u00b1) (Ar)200.592(3)[1]",
    "boiling point":"629.88 K \u200b(356.73 \u00b0C, \u200b674.11 \u00b0F)",
    "heat of fusion":"2.29 kJ/mol",
    "appearance":"silvery",
    "melting point":"234.3210 K \u200b(\u221238.8290 \u00b0C, \u200b\u221237.8922 \u00b0F)",
    "covalent radius":"132\u00b15 pm",
    "phase":"liquid",
    "category":"  transition metal",
    "electronegativity":" 2.00",
    "van der waals radius":"155 pm",
    "symbol":"mercury, Hg",
    "Group, block":"group 12, d-block",
    "period":"period 6",
    "thermal conductivity":"8.30 W/(m\u00b7K)",
    "molar heat capacity":"27.983 J/(mol\u00b7K)",
    "configuration":"[Xe] 4f14 5d10 6s2",
    "cas number":"7439-97-6",
    "speed of sound":"liquid: 1451.4 m/s (at 20 \u00b0C)"
}