{
    "crystal structure":"\u200bbody-centered cubic (bcc)",
    "per shell":"2, 8, 18, 13, 1",
    "molar heat capacity":"24.06 J/(mol\u00b7K)",
    "density":" near r.t.10.28 g/cm3",
    "oxidation states":"6, 5, 4, 3, 2, 1,[2] \u22121, \u22122, \u22124 \u200b(a strongly acidic oxide)",
    "symbol":"molybdenum, Mo",
    "heat of vaporizatio":"598 kJ/mol",
    "magnetic ordering":"paramagnetic[4]",
    "atomic weight":" (\u00b1) (Ar)95.95(1)[1]",
    "boiling point":"4912 K \u200b(4639 \u00b0C, \u200b8382 \u00b0F)",
    "heat of fusion":"37.48 kJ/mol",
    "density liquid at mp":"9.33 g/cm3",
    "category":"  transition metal",
    "melting point":"2896 K \u200b(2623 \u00b0C, \u200b4753 \u00b0F)",
    "covalent radius":"154\u00b15 pm",
    "phase":"solid",
    "Z":"42",
    "electronegativity":" 2.16",
    "appearance":"gray metallic",
    "Group, block":"group 6, d-block",
    "period":"period 5",
    "thermal conductivity":"138 W/(m\u00b7K)",
    "configuration":"[Kr] 4d5 5s1",
    "cas number":"7439-98-7",
    "speed of sound":" thin rod5400 m/s (at r.t.)"
}