{
    "crystal structure":"\u200bbody-centered cubic (bcc)",
    "per shell":"2, 8, 18, 12, 1",
    "molar heat capacity":"24.60 J/(mol\u00b7K)",
    "density":" near r.t.8.57 g/cm3",
    "oxidation states":"5, 4, 3, 2, 1, \u22121, \u22123 \u200b(a mildly acidic oxide)",
    "symbol":"niobium, Nb",
    "heat of vaporizatio":"689.9 kJ/mol",
    "magnetic ordering":"paramagnetic",
    "atomic weight":" (\u00b1) (Ar)92.90637(2)[1]",
    "boiling point":"5017 K \u200b(4744 \u00b0C, \u200b8571 \u00b0F)",
    "heat of fusion":"30 kJ/mol",
    "category":"  transition metal",
    "melting point":"2750 K \u200b(2477 \u00b0C, \u200b4491 \u00b0F)",
    "covalent radius":"164\u00b16 pm",
    "phase":"solid",
    "Z":"41",
    "electronegativity":" 1.6",
    "appearance":"gray metallic, bluish when oxidized",
    "Group, block":"group 5, d-block",
    "period":"period 5",
    "thermal conductivity":"53.7 W/(m\u00b7K)",
    "configuration":"[Kr] 4d4 5s1",
    "cas number":"7440-03-1",
    "speed of sound":"  thin rod3480 m/s (at 20 \u00b0C)"
}