{
    "density liquid at bp":"0.808 g/cm3",
    "crystal structure":"\u200bhexagonal",
    "per shell":"2, 5",
    "Z":"7",
    "density":" at stp (0 \u00b0C and 101.325 kPa)1.251 g/L",
    "critical point":"126.192 K, 3.3958 MPa",
    "oxidation states":"5, 4, 3, 2, 1, \u22121, \u22122, \u22123 \u200b(a strongly acidic oxide)",
    "heat of vaporizatio":"(N2) 5.56 kJ/mol",
    "magnetic ordering":"diamagnetic",
    "triple point":"63.151 K, \u200b12.52 kPa",
    "atomic weight":" (Ar)14.007[1] (14.00643\u201314.00728)[2]",
    "boiling point":"77.355 K \u200b(\u2212195.795 \u00b0C, \u200b\u2212320.431 \u00b0F)",
    "heat of fusion":"(N2) 0.72 kJ/mol",
    "appearance":"colorless gas, liquid or solid",
    "melting point":"63.15 K \u200b(\u2212210.00 \u00b0C, \u200b\u2212346.00 \u00b0F)",
    "covalent radius":"71\u00b11 pm",
    "phase":"gas",
    "category":"  diatomic nonmetal",
    "electronegativity":" 3.04",
    "van der waals radius":"155 pm",
    "symbol":"nitrogen, N",
    "Group, block":"group 15 (pnictogens), p-block",
    "period":"period 2",
    "thermal conductivity":"25.83\u00d710\u22123 W/(m\u00b7K)",
    "molar heat capacity":"(N2) 29.124 J/(mol\u00b7K)",
    "configuration":"[He] 2s2 2p3",
    "cas number":"7727-37-9",
    "speed of sound":"353 m/s (gas, at 27 \u00b0C)"
}