{
    "density liquid at bp":"1.141 g/cm3",
    "crystal structure":"\u200bcubic",
    "per shell":"2, 6",
    "Z":"8",
    "density":" at stp (0 \u00b0C and 101.325 kPa)1.429 g/L",
    "critical point":"154.581 K, 5.043 MPa",
    "oxidation states":"2, 1, \u22121, \u22122",
    "heat of vaporizatio":"(O2) 6.82 kJ/mol",
    "magnetic ordering":"paramagnetic",
    "triple point":"54.361 K, \u200b0.1463 kPa",
    "atomic weight":" (Ar)15.999[1] (15.99903\u201315.99977)[2]",
    "boiling point":"90.188 K \u200b(\u2212182.962 \u00b0C, \u200b\u2212297.332 \u00b0F)",
    "heat of fusion":"(O2) 0.444 kJ/mol",
    "appearance":"gas: colorless\nliquid: pale blue",
    "melting point":"54.36 K \u200b(\u2212218.79 \u00b0C, \u200b\u2212361.82 \u00b0F)",
    "covalent radius":"66\u00b12 pm",
    "phase":"gas",
    "category":"  diatomic nonmetal",
    "electronegativity":" 3.44",
    "van der waals radius":"152 pm",
    "symbol":"oxygen, O",
    "Group, block":"group 16 (chalcogens), p-block",
    "period":"period 2",
    "thermal conductivity":"26.58\u00d710\u22123  W/(m\u00b7K)",
    "molar heat capacity":"(O2) 29.378 J/(mol\u00b7K)",
    "configuration":"[He] 2s2 2p4",
    "cas number":"7782-44-7",
    "speed of sound":"330 m/s (gas, at 27 \u00b0C)"
}