{
    "crystal structure":"\u200bface-centered cubic (fcc)",
    "per shell":"2, 8, 18, 18",
    "molar heat capacity":"25.98 J/(mol\u00b7K)",
    "density":" near r.t.12.023 g/cm3",
    "oxidation states":"0, +1, +2, +3, +4, +5, +6 \u200b(a mildly basic oxide)",
    "symbol":"palladium, Pd",
    "heat of vaporizatio":"358 kJ/mol",
    "magnetic ordering":"paramagnetic[2]",
    "atomic weight":" (\u00b1) (Ar)106.42(1)[1]",
    "boiling point":"3236 K \u200b(2963 \u00b0C, \u200b5365 \u00b0F)",
    "heat of fusion":"16.74 kJ/mol",
    "density liquid at mp":"10.38 g/cm3",
    "category":"  transition metal",
    "melting point":"1828.05 K \u200b(1554.9 \u00b0C, \u200b2830.82 \u00b0F)",
    "covalent radius":"139\u00b16 pm",
    "phase":"solid",
    "Z":"46",
    "electronegativity":" 2.20",
    "van der waals radius":"163 pm",
    "appearance":"silvery white",
    "Group, block":"group 10, d-block",
    "period":"period 5",
    "thermal conductivity":"71.8 W/(m\u00b7K)",
    "configuration":"[Kr] 4d10",
    "cas number":"7440-05-3",
    "speed of sound":"  thin rod3070 m/s (at 20 \u00b0C)"
}