{
    "crystal structure":"\u200brhombohedral\n\u03b2-Po",
    "per shell":"2, 8, 18, 32, 18, 6",
    "molar heat capacity":"26.4 J/(mol\u00b7K)",
    "density":" near r.t.alpha: 9.196 g/cm3\nbeta: 9.398 g/cm3",
    "oxidation states":"6, 5,[1] 4, 2, \u22122 \u200b(an amphoteric oxide)",
    "symbol":"polonium, Po",
    "heat of vaporizatio":"102.91 kJ/mol",
    "magnetic ordering":"nonmagnetic",
    "atomic weight":" (Ar)(209)",
    "boiling point":"1235 K \u200b(962 \u00b0C, \u200b1764 \u00b0F)",
    "heat of fusion":"ca. 13 kJ/mol",
    "category":"  post-transition metal, but this status is disputed",
    "melting point":"527 K \u200b(254 \u00b0C, \u200b489 \u00b0F)",
    "covalent radius":"140\u00b14 pm",
    "phase":"solid",
    "Z":"84",
    "electronegativity":" 2.0",
    "van der waals radius":"197 pm",
    "appearance":"silvery",
    "Group, block":"group 16 (chalcogens), p-block",
    "period":"period 6",
    "thermal conductivity":"20 W/(m\u00b7K) (?)",
    "configuration":"[Xe] 4f14 5d10 6s2 6p4",
    "cas number":"7440-08-6"
}