{
    "crystal structure":"\u200bdouble hexagonal close-packed (dhcp)",
    "per shell":"2, 8, 18, 23, 8, 2",
    "Z":"61",
    "density":" near r.t.7.26 g/cm3",
    "oxidation states":"3, 2 \u200b(a mildly basic oxide)",
    "heat of vaporizatio":"289 kJ/mol",
    "magnetic ordering":"paramagnetic[2]",
    "atomic weight":" (Ar)[145]",
    "boiling point":"3273 K \u200b(3000 \u00b0C, \u200b5432 \u00b0F)",
    "heat of fusion":"7.13 kJ/mol",
    "appearance":"metallic",
    "thermal conductivity":"17.9 W/(m\u00b7K)",
    "covalent radius":"199 pm",
    "phase":"solid",
    "category":"  lanthanide",
    "electronegativity":" 1.13 (?)",
    "symbol":"promethium, Pm",
    "Group, block":"group n/a, f-block",
    "period":"period 6",
    "melting point":"1315 K \u200b(1042 \u00b0C, \u200b1908 \u00b0F)",
    "configuration":"[Xe] 4f5 6s2",
    "cas number":"7440-12-2"
}