{
    "crystal structure":"\u200bhexagonal close-packed (hcp)",
    "per shell":"2, 8, 18, 32, 13, 2",
    "molar heat capacity":"25.48 J/(mol\u00b7K)",
    "density":" near r.t.21.02 g/cm3",
    "oxidation states":"7, 6, 5, 4, 3, 2, 1, 0, \u22121, \u22123 \u200b(a mildly acidic oxide)",
    "symbol":"rhenium, Re",
    "heat of vaporizatio":"704 kJ/mol",
    "magnetic ordering":"paramagnetic[2]",
    "atomic weight":" (\u00b1) (Ar)186.207(1)[1]",
    "boiling point":"5869 K \u200b(5596 \u00b0C, \u200b10,105 \u00b0F)",
    "heat of fusion":"60.43 kJ/mol",
    "density liquid at mp":"18.9 g/cm3",
    "category":"  transition metal",
    "melting point":"3459 K \u200b(3186 \u00b0C, \u200b5767 \u00b0F)",
    "covalent radius":"151\u00b17 pm",
    "phase":"solid",
    "Z":"75",
    "electronegativity":" 1.9",
    "appearance":"silvery-grayish",
    "Group, block":"group 7, d-block",
    "period":"period 6",
    "thermal conductivity":"48.0 W/(m\u00b7K)",
    "configuration":"[Xe] 4f14 5d5 6s2",
    "cas number":"7440-15-5",
    "speed of sound":"  thin rod4700 m/s (at 20 \u00b0C)"
}