{
    "crystal structure":"\u200bbody-centered cubic (bcc)",
    "per shell":"2, 8, 18, 8, 1",
    "Z":"37",
    "density":" near r.t.1.532 g/cm3",
    "critical point":"2093 K, 16 MPa (extrapolated)[2]",
    "oxidation states":"+1, \u22121 \u200b(a strongly basic oxide)",
    "heat of vaporizatio":"69 kJ/mol",
    "magnetic ordering":"paramagnetic[4]",
    "triple point":"312.41 K, \u200b? kPa[2]",
    "atomic weight":" (\u00b1) (Ar)85.4678(3)[1]",
    "boiling point":"961 K \u200b(688 \u00b0C, \u200b1270 \u00b0F)",
    "heat of fusion":"2.19 kJ/mol",
    "density liquid at mp":"1.46 g/cm3",
    "appearance":"grey white",
    "melting point":"312.45 K \u200b(39.30 \u00b0C, \u200b102.74 \u00b0F)",
    "covalent radius":"220\u00b19 pm",
    "phase":"solid",
    "category":"  alkali metal",
    "electronegativity":" 0.82",
    "van der waals radius":"303 pm",
    "symbol":"rubidium, Rb",
    "Group, block":"group 1 (alkali metals), s-block",
    "period":"period 5",
    "thermal conductivity":"58.2 W/(m\u00b7K)",
    "molar heat capacity":"31.060 J/(mol\u00b7K)",
    "configuration":"[Kr] 5s1",
    "cas number":"7440-17-7",
    "speed of sound":"  thin rod1300 m/s (at 20 \u00b0C)"
}