{
    "crystal structure":"\u200bhexagonal close-packed (hcp)",
    "per shell":"2, 8, 18, 15, 1",
    "molar heat capacity":"24.06 J/(mol\u00b7K)",
    "density":" near r.t.12.45 g/cm3",
    "oxidation states":"-4, -2, 1,[2] 2, 3, 4, 5, 6, 7, 8 \u200b(a mildly acidic oxide)",
    "symbol":"ruthenium, Ru",
    "heat of vaporizatio":"619 kJ/mol",
    "magnetic ordering":"paramagnetic[3]",
    "atomic weight":" (\u00b1) (Ar)101.07(2)[1]",
    "boiling point":"4423 K \u200b(4150 \u00b0C, \u200b7502 \u00b0F)",
    "heat of fusion":"38.59 kJ/mol",
    "density liquid at mp":"10.65 g/cm3",
    "category":"  transition metal",
    "melting point":"2607 K \u200b(2334 \u00b0C, \u200b4233 \u00b0F)",
    "covalent radius":"146\u00b17 pm",
    "Z":"44",
    "electronegativity":" 2.2",
    "appearance":"silvery white metallic",
    "Group, block":"group 8, d-block",
    "period":"period 5",
    "thermal conductivity":"117 W/(m\u00b7K)",
    "configuration":"[Kr] 4d7 5s1",
    "cas number":"7440-18-8",
    "speed of sound":"  thin rod5970 m/s (at 20 \u00b0C)"
}