{
    "crystal structure":"\u200brhombohedral",
    "per shell":"2, 8, 18, 24, 8, 2",
    "molar heat capacity":"29.54 J/(mol\u00b7K)",
    "density":" near r.t.7.52 g/cm3",
    "oxidation states":"4, 3, 2, 1 \u200b(a mildly basic oxide)",
    "symbol":"samarium, Sm",
    "heat of vaporizatio":"192 kJ/mol",
    "magnetic ordering":"paramagnetic[2]",
    "atomic weight":" (\u00b1) (Ar)150.36(2)[1]",
    "boiling point":"2173 K \u200b(1900 \u00b0C, \u200b3452 \u00b0F)",
    "heat of fusion":"8.62 kJ/mol",
    "density liquid at mp":"7.16 g/cm3",
    "category":"  lanthanide",
    "melting point":"1345 K \u200b(1072 \u00b0C, \u200b1962 \u00b0F)",
    "covalent radius":"198\u00b18 pm",
    "phase":"solid",
    "Z":"62",
    "electronegativity":" 1.17",
    "appearance":"silvery white",
    "Group, block":"group n/a, f-block",
    "period":"period 6",
    "thermal conductivity":"13.3 W/(m\u00b7K)",
    "configuration":"[Xe] 4f6 6s2",
    "cas number":"7440-19-9",
    "speed of sound":"  thin rod2130 m/s (at 20 \u00b0C)"
}