{
    "crystal structure":"\u200bhexagonal",
    "per shell":"2, 8, 18, 6",
    "Z":"34",
    "density":" near r.t.gray: 4.81 g/cm3\nalpha: 4.39 g/cm3\nvitreous: 4.28 g/cm3",
    "critical point":"1766 K, 27.2 MPa",
    "oxidation states":"6, 5, 4, 3, 2, 1,[2] \u22121, \u22122 \u200b(a strongly acidic oxide)",
    "heat of vaporizatio":"95.48 kJ/mol",
    "magnetic ordering":"diamagnetic[3]",
    "atomic weight":" (\u00b1) (Ar)78.971(8)[1]",
    "boiling point":"958 K \u200b(685 \u00b0C, \u200b1265 \u00b0F)",
    "heat of fusion":"gray: 6.69 kJ/mol",
    "density liquid at mp":"3.99 g/cm3",
    "appearance":"black, red, and gray (not pictured) allotropes",
    "melting point":"494 K \u200b(221 \u00b0C, \u200b430 \u00b0F)",
    "covalent radius":"120\u00b14 pm",
    "phase":"solid",
    "category":"  polyatomic nonmetal, sometimes considered a metalloid",
    "electronegativity":" 2.55",
    "van der waals radius":"190 pm",
    "symbol":"selenium, Se",
    "Group, block":"group 16 (chalcogens), p-block",
    "period":"period 4",
    "thermal conductivity":"amorphous: 0.519 W/(m\u00b7K)",
    "molar heat capacity":"25.363 J/(mol\u00b7K)",
    "configuration":"[Ar] 3d10 4s2 4p4",
    "cas number":"7782-49-2",
    "speed of sound":"  thin rod3350 m/s (at 20 \u00b0C)"
}