{
    "crystal structure":"\u200bbody-centered cubic (bcc)",
    "per shell":"2, 8, 1",
    "Z":"11",
    "density":" near r.t.0.968 g/cm3",
    "critical point":"2573 K, 35 MPa (extrapolated)",
    "oxidation states":"+1, \u22121 \u200b(a strongly basic oxide)",
    "heat of vaporizatio":"97.42 kJ/mol",
    "magnetic ordering":"paramagnetic[2]",
    "atomic weight":" (\u00b1) (Ar)22.98976928(2)[1]",
    "boiling point":"1156.090 K \u200b(882.940 \u00b0C, \u200b1621.292 \u00b0F)",
    "heat of fusion":"2.60 kJ/mol",
    "density liquid at mp":"0.927 g/cm3",
    "appearance":"silvery white metallic",
    "melting point":"370.944 K \u200b(97.794 \u00b0C, \u200b208.029 \u00b0F)",
    "covalent radius":"166\u00b19 pm",
    "phase":"solid",
    "category":"  alkali metal",
    "electronegativity":" 0.93",
    "van der waals radius":"227 pm",
    "symbol":"sodium, Na",
    "Group, block":"group 1 (alkali metals), s-block",
    "period":"period 3",
    "thermal conductivity":"142 W/(m\u00b7K)",
    "molar heat capacity":"28.230 J/(mol\u00b7K)",
    "configuration":"[Ne] 3s1",
    "cas number":"7440-23-5",
    "speed of sound":"  thin rod3200 m/s (at 20 \u00b0C)"
}