{
    "crystal structure":"\u200borthorhombic",
    "per shell":"2, 8, 6",
    "Z":"16",
    "density":" near r.t.alpha: 2.07 g/cm3\nbeta: 1.96 g/cm3\ngamma: 1.92 g/cm3",
    "critical point":"1314 K, 20.7 MPa",
    "oxidation states":"6, 5, 4, 3, 2, 1, \u22121, \u22122 \u200b(a strongly acidic oxide)",
    "heat of vaporizatio":"mono: 45 kJ/mol",
    "magnetic ordering":"diamagnetic[3]",
    "atomic weight":" (Ar)32.06[1] (32.059\u201332.076)[2]",
    "boiling point":"717.8 K \u200b(444.6 \u00b0C, \u200b832.3 \u00b0F)",
    "heat of fusion":"mono: 1.727 kJ/mol",
    "density liquid at mp":"1.819 g/cm3",
    "appearance":"lemon yellow sintered microcrystals",
    "melting point":"388.36 K \u200b(115.21 \u00b0C, \u200b239.38 \u00b0F)",
    "covalent radius":"105\u00b13 pm",
    "phase":"solid",
    "category":"  polyatomic nonmetal",
    "electronegativity":" 2.58",
    "van der waals radius":"180 pm",
    "symbol":"sulfur, S",
    "Group, block":"group 16 (chalcogens), p-block",
    "period":"period 3",
    "thermal conductivity":"0.205 W/(m\u00b7K) (amorphous)",
    "molar heat capacity":"22.75 J/(mol\u00b7K)",
    "configuration":"[Ne] 3s2 3p4",
    "cas number":"7704-34-9"
}