{
    "crystal structure":"\u200bhexagonal close-packed (hcp)",
    "per shell":"2, 8, 18, 13, 2",
    "molar heat capacity":"24.27 J/(mol\u00b7K)",
    "density":" near r.t.11 g/cm3",
    "oxidation states":"7, 6, 5, 4, 3,[1] 2, 1,[1] \u22121, \u22123 \u200b(a strongly acidic oxide)",
    "symbol":"technetium, Tc",
    "heat of vaporizatio":"585.2 kJ/mol",
    "magnetic ordering":"Paramagnetic",
    "atomic weight":" (Ar)[98]",
    "boiling point":"4538 K \u200b(4265 \u00b0C, \u200b7709 \u00b0F)",
    "heat of fusion":"33.29 kJ/mol",
    "category":"  transition metal",
    "melting point":"2430 K \u200b(2157 \u00b0C, \u200b3915 \u00b0F)",
    "covalent radius":"147\u00b17 pm",
    "phase":"solid",
    "Z":"43",
    "electronegativity":" 1.9",
    "appearance":"shiny gray metal",
    "Group, block":"group 7, d-block",
    "period":"period 5",
    "thermal conductivity":"50.6 W/(m\u00b7K)",
    "configuration":"[Kr] 4d5 5s2",
    "cas number":"7440-26-8",
    "speed of sound":"  thin rod16,200 m/s (at 20 \u00b0C)"
}