{
    "crystal structure":"\u200bhexagonal",
    "per shell":"2, 8, 18, 18, 6",
    "molar heat capacity":"25.73 J/(mol\u00b7K)",
    "density":" near r.t.6.24 g/cm3",
    "oxidation states":"6, 5, 4, 3, 2, 1, \u22121, \u22122 \u200b(a mildly acidic oxide)",
    "symbol":"tellurium, Te",
    "heat of vaporizatio":"114.1 kJ/mol",
    "magnetic ordering":"diamagnetic[3]",
    "atomic weight":" (\u00b1) (Ar)127.60(3)[1]",
    "boiling point":"1261 K \u200b(988 \u00b0C, \u200b1810 \u00b0F)",
    "heat of fusion":"17.49 kJ/mol",
    "density liquid at mp":"5.70 g/cm3",
    "category":"  metalloid",
    "melting point":"722.66 K \u200b(449.51 \u00b0C, \u200b841.12 \u00b0F)",
    "covalent radius":"138\u00b14 pm",
    "phase":"solid",
    "Z":"52",
    "electronegativity":" 2.1",
    "van der waals radius":"206 pm",
    "appearance":"silvery lustrous gray (crystalline),\nbrown-black powder (amorphous)",
    "Group, block":"group 16 (chalcogens), p-block",
    "period":"period 5",
    "thermal conductivity":"1.97\u20133.38 W/(m\u00b7K)",
    "configuration":"[Kr] 4d10 5s2 5p4",
    "cas number":"13494-80-9",
    "speed of sound":"  thin rod2610 m/s (at 20 \u00b0C)"
}