{
    "crystal structure":"\u200bhexagonal close-packed (hcp)",
    "per shell":"2, 8, 10, 2",
    "molar heat capacity":"25.060 J/(mol\u00b7K)",
    "density":" near r.t.4.506 g/cm3",
    "oxidation states":"4, 3, 2, 1, \u22121, \u22122[2] \u200b(an amphoteric oxide)",
    "symbol":"titanium, Ti",
    "heat of vaporizatio":"425 kJ/mol",
    "magnetic ordering":"paramagnetic",
    "atomic weight":" (\u00b1) (Ar)47.867(1)[1]",
    "boiling point":"3560 K \u200b(3287 \u00b0C, \u200b5949 \u00b0F)",
    "heat of fusion":"14.15 kJ/mol",
    "density liquid at mp":"4.11 g/cm3",
    "category":"  transition metal",
    "melting point":"1941 K \u200b(1668 \u00b0C, \u200b3034 \u00b0F)",
    "covalent radius":"160\u00b18 pm",
    "phase":"solid",
    "Z":"22",
    "electronegativity":" 1.54",
    "appearance":"silvery grey-white metallic",
    "Group, block":"group 4, d-block",
    "period":"period 4",
    "thermal conductivity":"21.9 W/(m\u00b7K)",
    "configuration":"[Ar] 3d2 4s2",
    "cas number":"7440-32-6",
    "speed of sound":" thin rod5090 m/s (at r.t.)"
}