{
    "covalent radius":"157 pm (predicted)[9]",
    "per shell":"2, 8, 18, 32, 32, 18, 8 (predicted)",
    "category":"unknown, but predicted to be a noble gas",
    "Z":"118",
    "density":" when liquid, at m.p.4.9\u20135.1 g/cm3 (predicted)[4]",
    "critical point":"439 K, 6.8 MPa (extrapolated)[5]",
    "Group, block":"group 18, p-block",
    "boiling point":"350\u00b130 K \u200b(80\u00b130 \u00b0C, \u200b170\u00b150 \u00b0F) (extrapolated)[2]",
    "period":"period 7",
    "oxidation states":"\u22121,[3] 0, +1,[6] +2,[7] +4,[7] +6[3] \u200b(predicted)",
    "heat of vaporizatio":"19.4 kJ/mol (extrapolated)[5]",
    "configuration":"[Rn] 5f14 6d10 7s2 7p6 (predicted)[2][3]",
    "cas number":"54144-19-3[10]",
    "phase":"solid (predicted)[2]",
    "atomic weight":" (Ar)[294]",
    "heat of fusion":"23.5 kJ/mol (extrapolated)[5]",
    "symbol":"ununoctium, Uuo"
}