{
    "covalent radius":"172\u2013180 pm (extrapolated)[4]",
    "per shell":"2, 8, 18, 32, 32, 18, 3 (predicted)",
    "category":"unknown, but probably a post-transition metal",
    "Z":"113",
    "density":" near r.t.16 g/cm3 (predicted)[5]",
    "Group, block":"group 13, p-block",
    "boiling point":"1430 K \u200b(1130 \u00b0C, \u200b2070 \u00b0F) (predicted)[2][5]",
    "period":"period 7",
    "oxidation states":"\u22121, 1, 2, 3, 5 \u200b(predicted)[2][5][6]",
    "heat of vaporizatio":"130 kJ/mol (predicted)[3][5]",
    "configuration":"[Rn] 5f14 6d10 7s2 7p1 (predicted)[2]",
    "cas number":"54084-70-7",
    "phase":"solid (predicted)[2][3][4]",
    "atomic weight":" (Ar)[286]",
    "heat of fusion":"7.61 kJ/mol (extrapolated)[4]",
    "symbol":"ununtrium, Uut",
    "melting point":"700 K \u200b(430 \u00b0C, \u200b810 \u00b0F) (predicted)[2]"
}