{
    "crystal structure":"\u200bface-centered cubic (fcc)",
    "per shell":"2, 8, 18, 32, 8, 2",
    "molar heat capacity":"26.74 J/(mol\u00b7K)",
    "density":" near r.t.6.90 g/cm3",
    "oxidation states":"3, 2, 1 \u200b(a basic oxide)",
    "symbol":"ytterbium, Yb",
    "heat of vaporizatio":"129 kJ/mol",
    "magnetic ordering":"paramagnetic",
    "atomic weight":" (\u00b1) (Ar)173.045(10)[2]",
    "boiling point":"1469 K \u200b(1196 \u00b0C, \u200b2185 \u00b0F)",
    "heat of fusion":"7.66 kJ/mol",
    "density liquid at mp":"6.21 g/cm3",
    "category":"  lanthanide",
    "melting point":"1097 K \u200b(824 \u00b0C, \u200b1515 \u00b0F)",
    "covalent radius":"187\u00b18 pm",
    "phase":"solid",
    "Z":"70",
    "electronegativity":" 1.1 (?)",
    "appearance":"silvery white; with a pale yellow tint[1]",
    "Group, block":"group n/a, f-block",
    "period":"period 6",
    "thermal conductivity":"38.5 W/(m\u00b7K)",
    "configuration":"[Xe] 4f14 6s2",
    "cas number":"7440-64-4",
    "speed of sound":"  thin rod1590 m/s (at 20 \u00b0C)"
}