{
    "crystal structure":"\u200bhexagonal close-packed (hcp)",
    "per shell":"2, 8, 18, 9, 2",
    "molar heat capacity":"26.53 J/(mol\u00b7K)",
    "density":" near r.t.4.472 g/cm3",
    "oxidation states":"3, 2, 1 \u200b(a weakly basic oxide)",
    "symbol":"yttrium, Y",
    "heat of vaporizatio":"363 kJ/mol",
    "magnetic ordering":"paramagnetic[2]",
    "atomic weight":" (\u00b1) (Ar)88.90584(2)[1]",
    "boiling point":"3203 K \u200b(2930 \u00b0C, \u200b5306 \u00b0F)",
    "heat of fusion":"11.42 kJ/mol",
    "density liquid at mp":"4.24 g/cm3",
    "category":"  transition metal",
    "melting point":"1799 K \u200b(1526 \u00b0C, \u200b2779 \u00b0F)",
    "covalent radius":"190\u00b17 pm",
    "phase":"solid",
    "Z":"39",
    "electronegativity":" 1.22",
    "appearance":"silvery white",
    "Group, block":"group 3, d-block",
    "period":"period 5",
    "thermal conductivity":"17.2 W/(m\u00b7K)",
    "configuration":"[Kr] 4d1 5s2",
    "cas number":"7440-65-5",
    "speed of sound":"  thin rod3300 m/s (at 20 \u00b0C)"
}