{
    "crystal structure":"\u200bhexagonal close-packed (hcp)",
    "per shell":"2, 8, 18, 2",
    "molar heat capacity":"25.470 J/(mol\u00b7K)",
    "density":" near r.t.7.14 g/cm3",
    "oxidation states":"-2, 0, +1, +2 \u200b(an amphoteric oxide)",
    "symbol":"zinc, Zn",
    "heat of vaporizatio":"115 kJ/mol",
    "magnetic ordering":"diamagnetic",
    "atomic weight":" (\u00b1) (Ar)65.38(2)[1]",
    "boiling point":"1180 K \u200b(907 \u00b0C, \u200b1665 \u00b0F)",
    "heat of fusion":"7.32 kJ/mol",
    "density liquid at mp":"6.57 g/cm3",
    "category":"  transition metal, alternatively considered a post-transition metal",
    "melting point":"692.68 K \u200b(419.53 \u00b0C, \u200b787.15 \u00b0F)",
    "covalent radius":"122\u00b14 pm",
    "phase":"solid",
    "Z":"30",
    "electronegativity":" 1.65",
    "van der waals radius":"139 pm",
    "appearance":"silver-gray",
    "Group, block":"group 12, d-block",
    "period":"period 4",
    "thermal conductivity":"116 W/(m\u00b7K)",
    "configuration":"[Ar] 3d10 4s2",
    "cas number":"7440-66-6",
    "speed of sound":" thin rod3850 m/s (at r.t.) (rolled)"
}