{
    "density liquid at bp":"1.3954 g/cm3",
    "crystal structure":"\u200bface-centered cubic (fcc)",
    "per shell":"2, 8, 8",
    "Z":"18",
    "density":" at stp (0 \u00b0C and 101.325 kPa)1.784 g/L",
    "critical point":"150.687 K, 4.863 MPa[2]",
    "oxidation states":"0",
    "heat of vaporizatio":"6.53 kJ/mol",
    "magnetic ordering":"diamagnetic[4]",
    "triple point":"83.8058 K, \u200b68.89 kPa[2]",
    "atomic weight":" (\u00b1) (Ar)39.948(1)[1]",
    "boiling point":"87.302 K \u200b(\u2212185.848 \u00b0C, \u200b\u2212302.526 \u00b0F)",
    "heat of fusion":"1.18 kJ/mol",
    "appearance":"colorless gas exhibiting a lilac/violet glow when placed in a high voltage electric field",
    "melting point":"83.81 K \u200b(\u2212189.34 \u00b0C, \u200b\u2212308.81 \u00b0F)",
    "covalent radius":"106\u00b110 pm",
    "phase":"gas",
    "category":"  noble gas",
    "electronegativity":" no data",
    "van der waals radius":"188 pm",
    "symbol":"argon, Ar",
    "Group, block":"group 18 (noble gases), p-block",
    "period":"period 3",
    "thermal conductivity":"17.72\u00d710\u22123  W/(m\u00b7K)",
    "molar heat capacity":"20.85[3] J/(mol\u00b7K)",
    "configuration":"[Ne] 3s2 3p6",
    "cas number":"7440-37-1",
    "speed of sound":"323 m/s (gas, at 27 \u00b0C)"
}