{
    "crystal structure":"\u200bbody-centered cubic (bcc)",
    "per shell":"2, 8, 18, 18, 8, 2",
    "molar heat capacity":"28.07 J/(mol\u00b7K)",
    "density":" near r.t.3.51 g/cm3",
    "oxidation states":"+2, +1 \u200b(a strongly basic oxide)",
    "symbol":"barium, Ba",
    "heat of vaporizatio":"142 kJ/mol",
    "magnetic ordering":"paramagnetic[3]",
    "atomic weight":" (\u00b1) (Ar)137.327(7)[2]",
    "boiling point":"2118 K \u200b(1845 \u00b0C, \u200b3353 \u00b0F)",
    "heat of fusion":"7.12 kJ/mol",
    "density liquid at mp":"3.338 g/cm3",
    "category":"  alkaline earth metals",
    "melting point":"1000 K \u200b(727 \u00b0C, \u200b1341 \u00b0F)",
    "covalent radius":"215\u00b111 pm",
    "phase":"solid",
    "Z":"56",
    "electronegativity":" 0.89",
    "van der waals radius":"268 pm",
    "appearance":"silvery gray; with a pale yellow tint[1]",
    "Group, block":"group 2 (alkaline earth metals), s-block",
    "period":"period 6",
    "thermal conductivity":"18.4 W/(m\u00b7K)",
    "configuration":"[Xe] 6s2",
    "cas number":"7440-39-3",
    "speed of sound":"  thin rod1620 m/s (at 20 \u00b0C)"
}