{
    "crystal structure":"\u200bdouble hexagonal close-packed (dhcp)",
    "per shell":"2, 8, 18, 32, 27, 8, 2",
    "Z":"97",
    "category":"  actinide",
    "electronegativity":" 1.3",
    "density":" near r.t.alpha: 14.78 g/cm3\nbeta: 13.25 g/cm3",
    "appearance":"silvery",
    "Group, block":"group n/a, f-block",
    "boiling point":"beta: 2900 K \u200b(2627 \u00b0C, \u200b4760 \u00b0F)",
    "period":"period 7",
    "thermal conductivity":"10 W/(m\u00b7K)",
    "oxidation states":"2, 3, 4",
    "configuration":"[Rn] 5f9 7s2",
    "cas number":"7440-40-6",
    "phase":"solid",
    "magnetic ordering":"paramagnetic",
    "atomic weight":" (Ar)(247)",
    "heat of fusion":"7.92 kJ/mol (calculated)",
    "symbol":"berkelium, Bk",
    "melting point":"beta: 1259 K \u200b(986 \u00b0C, \u200b1807 \u00b0F)"
}