{
    "crystal structure":"\u200bface-centered cubic (fcc)",
    "per shell":"2, 8, 8, 2",
    "molar heat capacity":"25.929 J/(mol\u00b7K)",
    "density":" near r.t.1.55 g/cm3",
    "oxidation states":"+2, +1, \u22121[3] \u200b(a strongly basic oxide)",
    "symbol":"calcium, Ca",
    "heat of vaporizatio":"154.7 kJ/mol",
    "magnetic ordering":"diamagnetic",
    "atomic weight":" (\u00b1) (Ar)40.078(4)[2]",
    "boiling point":"1757 K \u200b(1484 \u00b0C, \u200b2703 \u00b0F)",
    "heat of fusion":"8.54 kJ/mol",
    "density liquid at mp":"1.378 g/cm3",
    "category":"  alkaline earth metal",
    "melting point":"1115 K \u200b(842 \u00b0C, \u200b1548 \u00b0F)",
    "covalent radius":"176\u00b110 pm",
    "phase":"solid",
    "Z":"20",
    "electronegativity":" 1.00",
    "van der waals radius":"231 pm",
    "appearance":"dull gray, silver; with a pale yellow tint[1]",
    "Group, block":"group 2 (alkaline earth metals), s-block",
    "period":"period 4",
    "thermal conductivity":"201 W/(m\u00b7K)",
    "configuration":"[Ar] 4s2",
    "cas number":"7440-70-2",
    "speed of sound":"  thin rod3810 m/s (at 20 \u00b0C)"
}