{
    "crystal structure":"\u200bface-centered diamond-cubic",
    "per shell":"2, 4",
    "Z":"6",
    "density":" near r.t.amorphous: 1.8\u20132.1 g/cm3[3]\ngraphite: 2.267 g/cm3\ndiamond: 3.515 g/cm3",
    "oxidation states":"+4, +3,[6] +2, +1,[7] 0, \u22121, \u22122, \u22123, \u22124[8] \u200b(a mildly acidic oxide)",
    "symbol":"carbon, C",
    "magnetic ordering":"diamagnetic[11]",
    "triple point":"4600 K, \u200b10,800 kPa[4][5]",
    "atomic weight":" (Ar)12.011[1] (12.0096\u201312.0116)[2]",
    "heat of fusion":"graphite: 117 kJ/mol",
    "appearance":"graphite: black\ndiamond: clear",
    "thermal conductivity":"graphite: 119\u2013165 W/(m\u00b7K)\ndiamond: 900\u20132300 W/(m\u00b7K)",
    "covalent radius":"sp3: 77 pm\nsp2: 73 pm\nsp: 69 pm",
    "phase":"solid",
    "category":"  polyatomic nonmetal, sometimes considered a metalloid",
    "electronegativity":" 2.55",
    "van der waals radius":"170 pm",
    "speed of sound":"  thin roddiamond: 18,350 m/s (at 20 \u00b0C)",
    "Group, block":"group 14 (carbon group), p-block",
    "period":"period 2",
    "molar heat capacity":"graphite: 8.517 J/(mol\u00b7K)\ndiamond: 6.155 J/(mol\u00b7K)",
    "configuration":"[He] 2s2 2p2",
    "cas number":"7440-44-0"
}