{
    "crystal structure":"\u200bface-centered cubic (fcc)\n\u03b3-Ce",
    "per shell":"2, 8, 18, 19, 9, 2",
    "Z":"58",
    "density":" near r.t.6.770 g/cm3",
    "oxidation states":"4, 3, 2, 1 \u200b(a mildly basic oxide)",
    "symbol":"cerium, Ce",
    "magnetic ordering":"paramagnetic[3]",
    "atomic weight":" (\u00b1) (Ar)140.116(1)[1]",
    "boiling point":"3716 K \u200b(3443 \u00b0C, \u200b6229 \u00b0F)",
    "heat of fusion":"5.46 kJ/mol",
    "density liquid at mp":"6.55 g/cm3",
    "appearance":"silvery white",
    "melting point":"1068 K \u200b(795 \u00b0C, \u200b1463 \u00b0F)",
    "covalent radius":"204\u00b19 pm",
    "phase":"solid",
    "category":"  lanthanide",
    "electronegativity":" 1.12",
    "speed of sound":"  thin rod2100 m/s (at 20 \u00b0C)",
    "Group, block":"group n/a, f-block",
    "period":"period 6",
    "thermal conductivity":"11.3 W/(m\u00b7K)",
    "molar heat capacity":"26.94 J/(mol\u00b7K)",
    "configuration":"[Xe] 4f1 5d1 6s2[2]",
    "cas number":"7440-45-1"
}