{
    "density liquid at bp":"1.5625 g/cm3[3]",
    "crystal structure":"\u200borthorhombic",
    "per shell":"2, 8, 7",
    "Z":"17",
    "density":" at stp (0 \u00b0C and 101.325 kPa)3.2 g/L",
    "critical point":"416.9 K, 7.991 MPa",
    "oxidation states":"7, 6, 5, 4, 3, 2, 1, \u22121 \u200b(a strongly acidic oxide)",
    "heat of vaporizatio":"(Cl2) 20.41 kJ/mol",
    "magnetic ordering":"diamagnetic[4]",
    "atomic weight":" (Ar)35.45[1] (35.446\u201335.457)[2]",
    "boiling point":"239.11 K \u200b(\u221234.04 \u00b0C, \u200b\u221229.27 \u00b0F)",
    "heat of fusion":"(Cl2) 6.406 kJ/mol",
    "appearance":"pale yellow-green gas",
    "melting point":"171.6 K \u200b(\u2212101.5 \u00b0C, \u200b\u2212150.7 \u00b0F)",
    "covalent radius":"102\u00b14 pm",
    "phase":"gas",
    "category":"  diatomic nonmetal",
    "electronegativity":" 3.16",
    "van der waals radius":"175 pm",
    "symbol":"chlorine, Cl",
    "Group, block":"group 17 (halogens), p-block",
    "period":"period 3",
    "thermal conductivity":"8.9\u00d710\u22123 W/(m\u00b7K)",
    "molar heat capacity":"(Cl2)\n33.949 J/(mol\u00b7K)",
    "configuration":"[Ne] 3s2 3p5",
    "cas number":"7782-50-5",
    "speed of sound":"206 m/s (gas, at 0 \u00b0C)"
}