{
    "crystal structure":"\u200bbody-centered cubic (bcc)",
    "per shell":"2, 8, 13, 1",
    "molar heat capacity":"23.35 J/(mol\u00b7K)",
    "density":" near r.t.7.19 g/cm3",
    "oxidation states":"6, 5, 4, 3, 2, 1, \u22121, \u22122, \u22124 \u200b(depending on the oxidation state, an acidic, basic, or amphoteric oxide)",
    "symbol":"chromium, Cr",
    "heat of vaporizatio":"347 kJ/mol",
    "magnetic ordering":"antiferromagnetic (rather: SDW)[2]",
    "atomic weight":" (\u00b1) (Ar)51.9961(6)[1]",
    "boiling point":"2944 K \u200b(2671 \u00b0C, \u200b4840 \u00b0F)",
    "heat of fusion":"21.0 kJ/mol",
    "density liquid at mp":"6.3 g/cm3",
    "category":"  transition metal",
    "melting point":"2180 K \u200b(1907 \u00b0C, \u200b3465 \u00b0F)",
    "covalent radius":"139\u00b15 pm",
    "phase":"solid",
    "Z":"24",
    "electronegativity":" 1.66",
    "appearance":"silvery metallic",
    "Group, block":"group 6, d-block",
    "period":"period 4",
    "thermal conductivity":"93.9 W/(m\u00b7K)",
    "configuration":"[Ar] 3d5 4s1",
    "cas number":"7440-47-3",
    "speed of sound":"  thin rod5940 m/s (at 20 \u00b0C)"
}