{
    "crystal structure":"\u200bhexagonal close-packed (hcp)",
    "per shell":"2, 8, 15, 2",
    "molar heat capacity":"24.81 J/(mol\u00b7K)",
    "density":" near r.t.8.90 g/cm3",
    "oxidation states":"\u22123, \u22121, +1, +2, +3, +4, +5[2] \u200b(an amphoteric oxide)",
    "symbol":"cobalt, Co",
    "heat of vaporizatio":"377 kJ/mol",
    "magnetic ordering":"ferromagnetic",
    "atomic weight":" (\u00b1) (Ar)58.933194(4)[1]",
    "boiling point":"3200 K \u200b(2927 \u00b0C, \u200b5301 \u00b0F)",
    "heat of fusion":"16.06 kJ/mol",
    "density liquid at mp":"8.86 g/cm3",
    "category":"  transition metal",
    "melting point":"1768 K \u200b(1495 \u00b0C, \u200b2723 \u00b0F)",
    "covalent radius":"Low spin: 126\u00b13 pm\nHigh spin: 150\u00b17 pm",
    "phase":"solid",
    "Z":"27",
    "electronegativity":" 1.88",
    "appearance":"hard lustrous bluish gray metal",
    "Group, block":"group 9, d-block",
    "period":"period 4",
    "thermal conductivity":"100 W/(m\u00b7K)",
    "configuration":"[Ar] 3d7 4s2",
    "cas number":"7440-48-4",
    "speed of sound":"  thin rod4720 m/s (at 20 \u00b0C)",
    "color":"metallic gray"
}