{
    "covalent radius":"122 pm (predicted)[5]",
    "per shell":"2, 8, 18, 32, 32, 18, 2 (predicted)",
    "category":"  transition metal",
    "Z":"112",
    "density":" near r.t.23.7 g/cm3 (predicted)[1]",
    "Group, block":"group 12, d-block",
    "boiling point":"357+112\n\u2212108 K \u200b(84+112\n\u2212108 \u00b0C, \u200b183+202\n\u2212194 \u00b0F)[2]",
    "period":"period 7",
    "oxidation states":"4, 2, 1, 0 \u200b(predicted)[1][3][4]",
    "configuration":"[Rn] 5f14 6d10 7s2 (predicted)[1]",
    "crystal structure":"\u200bhexagonal close-packed (hcp)\n(predicted)[6]",
    "cas number":"54084-26-3",
    "phase":"unknown",
    "atomic weight":" (Ar)[285]",
    "symbol":"copernicium, Cn"
}