{
    "crystal structure":"\u200bface-centered cubic (fcc)",
    "per shell":"2, 8, 18, 1",
    "molar heat capacity":"24.440 J/(mol\u00b7K)",
    "density":" near r.t.8.96 g/cm3",
    "oxidation states":"\u22122, +1, +2, +3, +4 \u200b(a mildly basic oxide)",
    "symbol":"copper, Cu",
    "heat of vaporizatio":"300.4 kJ/mol",
    "magnetic ordering":"diamagnetic[2]",
    "atomic weight":" (\u00b1) (Ar)63.546(3)[1]",
    "boiling point":"2835 K \u200b(2562 \u00b0C, \u200b4643 \u00b0F)",
    "heat of fusion":"13.26 kJ/mol",
    "density liquid at mp":"8.02 g/cm3",
    "category":"  transition metal",
    "melting point":"1357.77 K \u200b(1084.62 \u00b0C, \u200b1984.32 \u00b0F)",
    "covalent radius":"132\u00b14 pm",
    "phase":"solid",
    "Z":"29",
    "electronegativity":" 1.90",
    "van der waals radius":"140 pm",
    "appearance":"red-orange metallic luster",
    "Group, block":"group 11, d-block",
    "period":"period 4",
    "thermal conductivity":"401 W/(m\u00b7K)",
    "configuration":"[Ar] 3d10 4s1",
    "cas number":"7440-50-8",
    "speed of sound":" thin rod(annealed)\n3810 m/s (at r.t.)"
}