{
    "crystal structure":"\u200bhexagonal close-packed (hcp)",
    "per shell":"2, 8, 18, 28, 8, 2",
    "molar heat capacity":"27.7 J/(mol\u00b7K)",
    "density":" near r.t.8.540 g/cm3",
    "oxidation states":"4, 3, 2, 1 \u200b(a weakly basic oxide)",
    "symbol":"dysprosium, Dy",
    "heat of vaporizatio":"280 kJ/mol",
    "magnetic ordering":"paramagnetic at 300 K",
    "atomic weight":" (\u00b1) (Ar)162.500(1)[1]",
    "boiling point":"2840 K \u200b(2562 \u00b0C, \u200b4653 \u00b0F)",
    "heat of fusion":"11.06 kJ/mol",
    "density liquid at mp":"8.37 g/cm3",
    "category":"  lanthanide",
    "melting point":"1680 K \u200b(1407 \u00b0C, \u200b2565 \u00b0F)",
    "covalent radius":"192\u00b17 pm",
    "phase":"solid",
    "Z":"66",
    "electronegativity":" 1.22",
    "appearance":"silvery white",
    "Group, block":"group n/a, f-block",
    "period":"period 6",
    "thermal conductivity":"10.7 W/(m\u00b7K)",
    "configuration":"[Xe] 4f10 6s2",
    "cas number":"7429-91-6",
    "speed of sound":"  thin rod2710 m/s (at 20 \u00b0C)"
}