{
    "crystal structure":"\u200bbody-centered cubic (bcc)",
    "per shell":"2, 8, 18, 25, 8, 2",
    "molar heat capacity":"27.66 J/(mol\u00b7K)",
    "density":" near r.t.5.264 g/cm3",
    "oxidation states":"3, 2, 1 \u200b(a mildly basic oxide)",
    "symbol":"europium, Eu",
    "heat of vaporizatio":"176 kJ/mol",
    "magnetic ordering":"paramagnetic[3]",
    "atomic weight":" (\u00b1) (Ar)151.964(1)[2]",
    "boiling point":"1802 K \u200b(1529 \u00b0C, \u200b2784 \u00b0F)",
    "heat of fusion":"9.21 kJ/mol",
    "density liquid at mp":"5.13 g/cm3",
    "category":"  lanthanide",
    "melting point":"1099 K \u200b(826 \u00b0C, \u200b1519 \u00b0F)",
    "covalent radius":"198\u00b16 pm",
    "phase":"solid",
    "Z":"63",
    "electronegativity":" 1.2",
    "appearance":"silvery white, with a pale yellow tint;[1] but rarely seen without oxide discoloration",
    "Group, block":"group n/a, f-block",
    "period":"period 6",
    "thermal conductivity":"est. 13.9 W/(m\u00b7K)",
    "configuration":"[Xe] 4f7 6s2",
    "cas number":"7440-53-1"
}