{
    "crystal structure":"\u200bface-centered cubic (fcc)\n(predicted)[1]",
    "per shell":"2, 8, 18, 32, 30, 8, 2",
    "category":"  actinide",
    "Z":"100",
    "electronegativity":" 1.3",
    "density":" near r.t.9.7(1) g/cm3 (predicted)[1]",
    "Group, block":"group n/a, f-block",
    "period":"period 7",
    "oxidation states":"2, 3",
    "configuration":"[Rn] 5f12 7s2",
    "cas number":"7440-72-4",
    "phase":"solid (predicted)",
    "atomic weight":" (Ar)(257)",
    "symbol":"fermium, Fm",
    "melting point":"1800 K \u200b(1527 \u00b0C, \u200b2781 \u00b0F) (predicted)"
}