{
    "covalent radius":"171\u2013177 pm (extrapolated)[4]",
    "per shell":"2, 8, 18, 32, 32, 18, 4 (predicted)",
    "category":"  post-transition metal",
    "Z":"114",
    "density":" near r.t.14 g/cm3 (predicted)[3]",
    "Group, block":"group 14 (carbon group), p-block",
    "boiling point":"420 K \u200b(147 \u00b0C, \u200b297 \u00b0F) (predicted)[3][4][5]",
    "period":"period 7",
    "oxidation states":"0, 1, 2, 4, 6 \u200b(predicted)[2][3][6]",
    "heat of vaporizatio":"38 kJ/mol (predicted)[3]",
    "configuration":"[Rn] 5f14 6d10 7s2 7p2 (predicted)[2]",
    "cas number":"54085-16-4",
    "phase":"solid (predicted)[2]",
    "atomic weight":" (Ar)[289]",
    "symbol":"flerovium, Fl",
    "melting point":"340 K \u200b(67 \u00b0C, \u200b160 \u00b0F) (predicted)[3]"
}