{
    "crystal structure":"\u200borthorhombic",
    "per shell":"2, 8, 18, 3",
    "molar heat capacity":"25.86 J/(mol\u00b7K)",
    "density":" near r.t.5.91 g/cm3",
    "oxidation states":"3, 2, 1, \u22121, \u22122, \u22124, \u22125[3] \u200b(an amphoteric oxide)",
    "symbol":"gallium, Ga",
    "heat of vaporizatio":"256 kJ/mol[2]",
    "magnetic ordering":"diamagnetic",
    "atomic weight":" (\u00b1) (Ar)69.723(1)[1]",
    "boiling point":"2673 K \u200b(2400 \u00b0C, \u200b4352 \u00b0F)[2]",
    "heat of fusion":"5.59 kJ/mol",
    "density liquid at mp":"6.095 g/cm3",
    "category":"  post-transition metal",
    "melting point":"302.9146 K \u200b(29.7646 \u00b0C, \u200b85.5763 \u00b0F)",
    "covalent radius":"122\u00b13 pm",
    "phase":"solid",
    "Z":"31",
    "electronegativity":" 1.81",
    "van der waals radius":"187 pm",
    "appearance":"silvery blue",
    "Group, block":"group 13, p-block",
    "period":"period 4",
    "thermal conductivity":"40.6 W/(m\u00b7K)",
    "configuration":"[Ar] 3d10 4s2 4p1",
    "cas number":"7440-55-3",
    "speed of sound":"  thin rod2740 m/s (at 20 \u00b0C)"
}