{
    "crystal structure":"\u200bhexagonal close-packed (hcp)",
    "per shell":"2, 8, 18, 32, 10, 2",
    "molar heat capacity":"25.73 J/(mol\u00b7K)",
    "density":" near r.t.13.31 g/cm3",
    "oxidation states":"4, 3, 2, 1, \u22122 \u200b(an amphoteric oxide)",
    "symbol":"hafnium, Hf",
    "heat of vaporizatio":"648 kJ/mol",
    "magnetic ordering":"paramagnetic[2]",
    "atomic weight":" (\u00b1) (Ar)178.49(2)[1]",
    "boiling point":"4876 K \u200b(4603 \u00b0C, \u200b8317 \u00b0F)",
    "heat of fusion":"27.2 kJ/mol",
    "density liquid at mp":"12 g/cm3",
    "category":"  transition metal",
    "melting point":"2506 K \u200b(2233 \u00b0C, \u200b4051 \u00b0F)",
    "covalent radius":"175\u00b110 pm",
    "phase":"solid",
    "Z":"72",
    "electronegativity":" 1.3",
    "appearance":"steel gray",
    "Group, block":"group 4, d-block",
    "period":"period 6",
    "thermal conductivity":"23.0 W/(m\u00b7K)",
    "configuration":"[Xe] 4f14 5d2 6s2",
    "cas number":"7440-58-6",
    "speed of sound":"  thin rod3010 m/s (at 20 \u00b0C)"
}