{
    "density liquid at bp":"0.125 g/cm3",
    "crystal structure":"\u200bhexagonal close-packed (hcp)",
    "per shell":"2",
    "Z":"2",
    "density":" at stp (0 \u00b0C and 101.325 kPa)0.1786 g/L",
    "critical point":"5.1953 K, 0.22746 MPa",
    "oxidation states":"0",
    "heat of vaporizatio":"0.0829 kJ/mol",
    "magnetic ordering":"diamagnetic[3]",
    "triple point":"2.177 K, \u200b5.043 kPa",
    "atomic weight":" (\u00b1) (Ar)4.002602(2)[1]",
    "boiling point":"4.222 K \u200b(\u2212268.928 \u00b0C, \u200b\u2212452.070 \u00b0F)",
    "heat of fusion":"0.0138 kJ/mol",
    "density liquid at mp":"0.145 g/cm3",
    "appearance":"colorless gas, exhibiting a red-orange glow when placed in a high-voltage electric field",
    "melting point":"0.95 K \u200b(\u2212272.20 \u00b0C, \u200b\u2212457.96 \u00b0F) (at 2.5 MPa)",
    "covalent radius":"28 pm",
    "phase":"gas",
    "category":"  noble gas",
    "electronegativity":" no data",
    "van der waals radius":"140 pm",
    "symbol":"helium, He",
    "Group, block":"group 18 (noble gases), s-block",
    "period":"period 1",
    "thermal conductivity":"0.1513 W/(m\u00b7K)",
    "molar heat capacity":"20.78[2] J/(mol\u00b7K)",
    "configuration":"1s2",
    "cas number":"7440-59-7",
    "speed of sound":"972 m/s"
}