{
    "crystal structure":"\u200bhexagonal close-packed (hcp)",
    "per shell":"2, 8, 18, 29, 8, 2",
    "molar heat capacity":"27.15 J/(mol\u00b7K)",
    "density":" near r.t.8.79 g/cm3",
    "oxidation states":"3, 2, 1 \u200b(a basic oxide)",
    "symbol":"holmium, Ho",
    "heat of vaporizatio":"251 kJ/mol",
    "magnetic ordering":"paramagnetic",
    "atomic weight":" (\u00b1) (Ar)164.93033(2)[1]",
    "boiling point":"2873 K \u200b(2600 \u00b0C, \u200b4712 \u00b0F)",
    "heat of fusion":"17.0 kJ/mol",
    "density liquid at mp":"8.34 g/cm3",
    "category":"  lanthanide",
    "melting point":"1734 K \u200b(1461 \u00b0C, \u200b2662 \u00b0F)",
    "covalent radius":"192\u00b17 pm",
    "phase":"solid",
    "Z":"67",
    "electronegativity":" 1.23",
    "appearance":"silvery white",
    "Group, block":"group n/a, f-block",
    "period":"period 6",
    "thermal conductivity":"16.2 W/(m\u00b7K)",
    "configuration":"[Xe] 4f11 6s2",
    "cas number":"7440-60-0",
    "speed of sound":"  thin rod2760 m/s (at 20 \u00b0C)"
}