{
    "crystal structure":"\u200btetragonal",
    "per shell":"2, 8, 18, 18, 3",
    "molar heat capacity":"26.74 J/(mol\u00b7K)",
    "density":" near r.t.7.31 g/cm3",
    "oxidation states":"3, 2, 1, \u22121, \u22122, \u22125[3] \u200b(an amphoteric oxide)",
    "symbol":"indium, In",
    "heat of vaporizatio":"231.8 kJ/mol",
    "magnetic ordering":"diamagnetic[4]",
    "triple point":"429.7445 K, \u200b~1 kPa[2]",
    "atomic weight":" (\u00b1) (Ar)114.818(1)[1]",
    "boiling point":"2345 K \u200b(2072 \u00b0C, \u200b3762 \u00b0F)",
    "heat of fusion":"3.281 kJ/mol",
    "density liquid at mp":"7.02 g/cm3",
    "category":"  post-transition metal",
    "melting point":"429.7485 K \u200b(156.5985 \u00b0C, \u200b313.8773 \u00b0F)",
    "covalent radius":"142\u00b15 pm",
    "phase":"solid",
    "Z":"49",
    "electronegativity":" 1.78",
    "van der waals radius":"193 pm",
    "appearance":"silvery lustrous gray",
    "Group, block":"group 13, p-block",
    "period":"period 5",
    "thermal conductivity":"81.8 W/(m\u00b7K)",
    "configuration":"[Kr] 4d10 5s2 5p1",
    "cas number":"7440-74-6",
    "speed of sound":"  thin rod1215 m/s (at 20 \u00b0C)"
}