{
    "crystal structure":"\u200borthorhombic",
    "per shell":"2, 8, 18, 18, 7",
    "Z":"53",
    "density":" near r.t.4.933 g/cm3",
    "critical point":"819 K, 11.7 MPa",
    "oxidation states":"7, 6, 5, 4, 3, 1, \u22121 \u200b(a strongly acidic oxide)",
    "heat of vaporizatio":"(I2) 41.57 kJ/mol",
    "magnetic ordering":"diamagnetic[2]",
    "triple point":"386.65 K, \u200b12.1 kPa",
    "atomic weight":" (\u00b1) (Ar)126.90447(3)[1]",
    "boiling point":"457.4 K \u200b(184.3 \u00b0C, \u200b363.7 \u00b0F)",
    "heat of fusion":"(I2) 15.52 kJ/mol",
    "appearance":"lustrous metallic gray, violet as a gas",
    "melting point":"386.85 K \u200b(113.7 \u00b0C, \u200b236.66 \u00b0F)",
    "covalent radius":"139\u00b13 pm",
    "phase":"solid",
    "category":"  diatomic nonmetal",
    "electronegativity":" 2.66",
    "van der waals radius":"198 pm",
    "symbol":"iodine, I",
    "Group, block":"group 17 (halogens), p-block",
    "period":"period 5",
    "thermal conductivity":"0.449 W/(m\u00b7K)",
    "molar heat capacity":"(I2) 54.44 J/(mol\u00b7K)",
    "configuration":"[Kr] 4d10 5s2 5p5",
    "cas number":"7553-56-2"
}