{
    "crystal structure":"\u200bface-centered cubic (fcc)\nbetween 1185\u20131667 K",
    "per shell":"2, 8, 14, 2",
    "molar heat capacity":"25.10 J/(mol\u00b7K)",
    "density":" near r.t.7.874 g/cm3",
    "oxidation states":"\u22124, \u22122, \u22121, +1,[2] +2, +3, +4, +5,[3] +6 \u200b(an amphoteric oxide)",
    "symbol":"iron, Fe",
    "heat of vaporizatio":"340 kJ/mol",
    "magnetic ordering":"ferromagnetic",
    "atomic weight":" (\u00b1) (Ar)55.845(2)[1]",
    "boiling point":"3134 K \u200b(2862 \u00b0C, \u200b5182 \u00b0F)",
    "heat of fusion":"13.81 kJ/mol",
    "density liquid at mp":"6.98 g/cm3",
    "category":"  transition metal",
    "melting point":"1811 K \u200b(1538 \u00b0C, \u200b2800 \u00b0F)",
    "covalent radius":"Low spin: 132\u00b13 pm\nHigh spin: 152\u00b16 pm",
    "phase":"solid",
    "Z":"26",
    "electronegativity":" 1.83",
    "appearance":"lustrous metallic with a grayish tinge",
    "Group, block":"group 8, d-block",
    "period":"period 4",
    "thermal conductivity":"80.4 W/(m\u00b7K)",
    "configuration":"[Ar] 3d6 4s2",
    "cas number":"7439-89-6",
    "speed of sound":" thin rod5120 m/s (at r.t.) (electrolytic)"
}