{
    "crystal structure":"\u200bhexagonal close-packed (hcp)\n(predicted)[5]",
    "per shell":"2, 8, 18, 32, 32, 8, 3",
    "Z":"103",
    "category":"  actinide, sometimes considered a transition metal",
    "density":" near r.t.~15.6\u201316.6 g/cm3 (predicted)[2][3]",
    "appearance":"silvery (predicted)[1]",
    "Group, block":"group n/a, d-block",
    "period":"period 7",
    "oxidation states":"3",
    "configuration":"[Rn] 5f14 7s2 7p1",
    "cas number":"22537-19-5",
    "phase":"solid (predicted)",
    "atomic weight":" (Ar)[266]",
    "symbol":"lawrencium, Lr",
    "melting point":"1900 K \u200b(1627 \u00b0C, \u200b2961 \u00b0F) (predicted)"
}