{
    "crystal structure":"\u200bface-centered cubic (fcc)",
    "per shell":"2, 8, 18, 32, 18, 4",
    "molar heat capacity":"26.650 J/(mol\u00b7K)",
    "density":" near r.t.11.34 g/cm3",
    "oxidation states":"4, 3, 2, 1, \u22121, \u22122, \u22124 \u200b(an amphoteric oxide)",
    "symbol":"lead, Pb",
    "heat of vaporizatio":"179.5 kJ/mol",
    "magnetic ordering":"diamagnetic",
    "atomic weight":" (\u00b1) (Ar)207.2(1)[1]",
    "boiling point":"2022 K \u200b(1749 \u00b0C, \u200b3180 \u00b0F)",
    "heat of fusion":"4.77 kJ/mol",
    "density liquid at mp":"10.66 g/cm3",
    "category":"  post-transition metal",
    "melting point":"600.61 K \u200b(327.46 \u00b0C, \u200b621.43 \u00b0F)",
    "covalent radius":"146\u00b15 pm",
    "phase":"solid",
    "Z":"82",
    "electronegativity":" 1.87",
    "van der waals radius":"202 pm",
    "appearance":"metallic gray",
    "Group, block":"group 14 (carbon group), p-block",
    "period":"period 6",
    "thermal conductivity":"35.3 W/(m\u00b7K)",
    "configuration":"[Xe] 4f14 5d10 6s2 6p2",
    "cas number":"7439-92-1",
    "speed of sound":" thin rod1190 m/s (at r.t.) (annealed)"
}