{
    "crystal structure":"\u200bbody-centered cubic (bcc)",
    "per shell":"2, 1",
    "Z":"3",
    "density":" near r.t.0.534 g/cm3",
    "critical point":"3220 K, 67 MPa (extrapolated)",
    "oxidation states":"+1 \u200b(a strongly basic oxide)",
    "heat of vaporizatio":"136 kJ/mol",
    "magnetic ordering":"paramagnetic",
    "atomic weight":" (Ar)6.94[1] (6.938\u20136.997)[2]",
    "boiling point":"1603 K \u200b(1330 \u00b0C, \u200b2426 \u00b0F)",
    "heat of fusion":"3.00 kJ/mol",
    "density liquid at mp":"0.512 g/cm3",
    "appearance":"silvery-white",
    "melting point":"453.65 K \u200b(180.50 \u00b0C, \u200b356.90 \u00b0F)",
    "covalent radius":"128\u00b17 pm",
    "phase":"solid",
    "category":"  alkali metal",
    "electronegativity":" 0.98",
    "van der waals radius":"182 pm",
    "symbol":"lithium, Li",
    "Group, block":"group 1 (alkali metals), s-block",
    "period":"period 2",
    "thermal conductivity":"84.8 W/(m\u00b7K)",
    "molar heat capacity":"24.860 J/(mol\u00b7K)",
    "configuration":"[He] 2s1",
    "cas number":"7439-93-2",
    "speed of sound":"  thin rod6000 m/s (at 20 \u00b0C)"
}