{
    "crystal structure":"\u200bhexagonal close-packed (hcp)",
    "per shell":"2, 8, 18, 32, 9, 2",
    "molar heat capacity":"26.86 J/(mol\u00b7K)",
    "density":" near r.t.9.841 g/cm3",
    "oxidation states":"3, 2, 1 \u200b(a weakly basic oxide)",
    "symbol":"lutetium, Lu",
    "heat of vaporizatio":"414 kJ/mol",
    "magnetic ordering":"paramagnetic[2]",
    "atomic weight":" (\u00b1) (Ar)174.9668(1)[1]",
    "boiling point":"3675 K \u200b(3402 \u00b0C, \u200b6156 \u00b0F)",
    "heat of fusion":"ca. 22 kJ/mol",
    "density liquid at mp":"9.3 g/cm3",
    "category":"  lanthanide, sometimes considered a transition metal",
    "melting point":"1925 K \u200b(1652 \u00b0C, \u200b3006 \u00b0F)",
    "covalent radius":"187\u00b18 pm",
    "phase":"solid",
    "Z":"71",
    "electronegativity":" 1.27",
    "appearance":"silvery white",
    "Group, block":"group n/a, d-block",
    "period":"period 6",
    "thermal conductivity":"16.4 W/(m\u00b7K)",
    "configuration":"[Xe] 6s2 4f14 5d1",
    "cas number":"7439-94-3"
}