{
    "crystal structure":"\u200bbody-centered cubic (bcc)",
    "per shell":"2, 8, 13, 2",
    "molar heat capacity":"26.32 J/(mol\u00b7K)",
    "density":" near r.t.7.21 g/cm3",
    "oxidation states":"7, 6, 5, 4, 3, 2, 1, \u22121, \u22122, \u22123 \u200bacidic, basic or amphoteric; depending on the oxidation state",
    "symbol":"manganese, Mn",
    "heat of vaporizatio":"221 kJ/mol",
    "magnetic ordering":"paramagnetic",
    "atomic weight":" (\u00b1) (Ar)54.938044(3)[1]",
    "boiling point":"2334 K \u200b(2061 \u00b0C, \u200b3742 \u00b0F)",
    "heat of fusion":"12.91 kJ/mol",
    "density liquid at mp":"5.95 g/cm3",
    "category":"  transition metal",
    "melting point":"1519 K \u200b(1246 \u00b0C, \u200b2275 \u00b0F)",
    "covalent radius":"Low spin: 139\u00b15 pm\nHigh spin: 161\u00b18 pm",
    "phase":"solid",
    "Z":"25",
    "electronegativity":" 1.55",
    "appearance":"silvery metallic",
    "Group, block":"group 7, d-block",
    "period":"period 4",
    "thermal conductivity":"7.81 W/(m\u00b7K)",
    "configuration":"[Ar] 3d5 4s2",
    "cas number":"7439-96-5",
    "speed of sound":"  thin rod5150 m/s (at 20 \u00b0C)"
}