{
    "crystal structure":"\u200bface-centered cubic (fcc)\n(predicted)[1]",
    "per shell":"2, 8, 18, 32, 31, 8, 2",
    "category":"  actinide",
    "Z":"101",
    "electronegativity":" 1.3",
    "density":" near r.t.10.3(7) g/cm3 (predicted)[1]",
    "Group, block":"group n/a, f-block",
    "period":"period 7",
    "oxidation states":"2, 3",
    "configuration":"[Rn] 5f13 7s2",
    "cas number":"7440-11-1",
    "phase":"solid (predicted)",
    "atomic weight":" (Ar)(258)",
    "symbol":"mendelevium, Md",
    "melting point":"1100 K \u200b(827 \u00b0C, \u200b1521 \u00b0F) (predicted)"
}