{
    "crystal structure":"\u200bdouble hexagonal close-packed (dhcp)",
    "per shell":"2, 8, 18, 22, 8, 2",
    "molar heat capacity":"27.45 J/(mol\u00b7K)",
    "density":" near r.t.7.01 g/cm3",
    "oxidation states":"+4, +3, +2 \u200b(a mildly basic oxide)",
    "symbol":"neodymium, Nd",
    "heat of vaporizatio":"289 kJ/mol",
    "magnetic ordering":"paramagnetic, antiferromagnetic below 20 K[2]",
    "atomic weight":" (\u00b1) (Ar)144.242(3)[1]",
    "boiling point":"3347 K \u200b(3074 \u00b0C, \u200b5565 \u00b0F)",
    "heat of fusion":"7.14 kJ/mol",
    "density liquid at mp":"6.89 g/cm3",
    "category":"  lanthanide",
    "melting point":"1297 K \u200b(1024 \u00b0C, \u200b1875 \u00b0F)",
    "covalent radius":"201\u00b16 pm",
    "phase":"solid",
    "Z":"60",
    "electronegativity":" 1.14",
    "appearance":"silvery white",
    "Group, block":"group n/a, f-block",
    "period":"period 6",
    "thermal conductivity":"16.5 W/(m\u00b7K)",
    "configuration":"[Xe] 4f4 6s2",
    "cas number":"7440-00-8",
    "speed of sound":"  thin rod2330 m/s (at 20 \u00b0C)"
}