{
    "density liquid at bp":"1.207 g/cm3[2]",
    "crystal structure":"\u200bface-centered cubic (fcc)",
    "per shell":"2, 8",
    "Z":"10",
    "density":" at stp (0 \u00b0C and 101.325 kPa)0.9002 g/L",
    "critical point":"44.4918 K, 2.7686 MPa[4]",
    "oxidation states":"0",
    "heat of vaporizatio":"1.71 kJ/mol",
    "magnetic ordering":"diamagnetic[6]",
    "triple point":"24.556 K, \u200b43.37 kPa[3][4]",
    "atomic weight":" (\u00b1) (Ar)20.1797(6)[1]",
    "boiling point":"27.104 K \u200b(\u2212246.046 \u00b0C, \u200b\u2212410.883 \u00b0F)",
    "heat of fusion":"0.335 kJ/mol",
    "appearance":"colorless gas exhibiting an orange-red glow when placed in a high voltage electric field",
    "melting point":"24.56 K \u200b(\u2212248.59 \u00b0C, \u200b\u2212415.46 \u00b0F)",
    "covalent radius":"58 pm",
    "phase":"gas",
    "category":"  noble gas",
    "van der waals radius":"154 pm",
    "symbol":"neon, Ne",
    "Group, block":"group 18 (noble gases), p-block",
    "period":"period 2",
    "thermal conductivity":"49.1\u00d710\u22123 W/(m\u00b7K)",
    "molar heat capacity":"20.79[5] J/(mol\u00b7K)",
    "configuration":"[He] 2s2 2p6",
    "cas number":"7440-01-9",
    "speed of sound":"435 m/s (gas, at 0 \u00b0C)"
}