{
    "crystal structure":"\u200borthorhombic",
    "per shell":"2, 8, 18, 32, 22, 9, 2",
    "molar heat capacity":"29.46 J/(mol\u00b7K)",
    "density":" near r.t.alpha: 20.45 g/cm3[1]\naccepted standard value: 19.38 g/cm3",
    "oxidation states":"7, 6, 5, 4, 3, 2 \u200b(an amphoteric oxide)",
    "symbol":"neptunium, Np",
    "heat of vaporizatio":"336 kJ/mol",
    "magnetic ordering":"paramagnetic[2]",
    "atomic weight":" (Ar)(237)",
    "boiling point":"4447 K \u200b(4174 \u00b0C, \u200b7545 \u00b0F) (extrapolated)",
    "heat of fusion":"5.19 kJ/mol",
    "category":"  actinide",
    "thermal conductivity":"6.3 W/(m\u00b7K)",
    "covalent radius":"190\u00b11 pm",
    "phase":"solid",
    "Z":"93",
    "electronegativity":" 1.36",
    "appearance":"silvery metallic",
    "Group, block":"group n/a, f-block",
    "period":"period 7",
    "melting point":"912\u00b13 K \u200b(639\u00b13 \u00b0C, \u200b1182\u00b15 \u00b0F)",
    "configuration":"[Rn] 5f4 6d1 7s2",
    "cas number":"7439-99-8"
}