{
    "crystal structure":"\u200bface-centered cubic (fcc)",
    "per shell":"2, 8, 16, 2 or 2, 8, 17, 1",
    "molar heat capacity":"26.07 J/(mol\u00b7K)",
    "density":" near r.t.8.908 g/cm3",
    "oxidation states":"4,[2] 3, 2, 1,[3] \u22121, \u22122 \u200b(a mildly basic oxide)",
    "symbol":"nickel, Ni",
    "heat of vaporizatio":"379 kJ/mol",
    "magnetic ordering":"ferromagnetic",
    "atomic weight":" (\u00b1) (Ar)58.6934(4)[1]",
    "boiling point":"3003 K \u200b(2730 \u00b0C, \u200b4946 \u00b0F)",
    "heat of fusion":"17.48 kJ/mol",
    "density liquid at mp":"7.81 g/cm3",
    "category":"  transition metal",
    "melting point":"1728 K \u200b(1455 \u00b0C, \u200b2651 \u00b0F)",
    "covalent radius":"124\u00b14 pm",
    "phase":"solid",
    "Z":"28",
    "electronegativity":" 1.91",
    "van der waals radius":"163 pm",
    "appearance":"lustrous, metallic, and silver with a gold tinge",
    "Group, block":"group 10, d-block",
    "period":"period 4",
    "thermal conductivity":"90.9 W/(m\u00b7K)",
    "configuration":"[Ar] 3d8 4s2 or\n[Ar] 3d9 4s1",
    "cas number":"7440-02-0",
    "speed of sound":" thin rod4900 m/s (at r.t.)"
}