{
    "crystal structure":"\u200bface-centered cubic (fcc)\n(predicted)[2]",
    "per shell":"2, 8, 18, 32, 32, 8, 2",
    "category":"  actinide",
    "Z":"102",
    "electronegativity":" 1.3 (predicted)[3]",
    "density":" near r.t.9.9(4) g/cm3 (predicted)[2]",
    "Group, block":"group n/a, f-block",
    "period":"period 7",
    "oxidation states":"2, 3",
    "configuration":"[Rn] 5f14 7s2",
    "cas number":"10028-14-5",
    "phase":"solid (predicted)[1]",
    "atomic weight":" (Ar)[259]",
    "symbol":"nobelium, No",
    "melting point":"1100 K \u200b(827 \u00b0C, \u200b1521 \u00b0F) (predicted)[1]"
}