{
    "crystal structure":"\u200bhexagonal close-packed (hcp)",
    "per shell":"2, 8, 18, 32, 14, 2",
    "molar heat capacity":"24.7 J/(mol\u00b7K)",
    "density":" near r.t.22.59 g/cm3",
    "oxidation states":"8, 7, 6, 5, 4, 3, 2, 1, 0, \u22121, \u22122, \u22124 \u200b(a mildly acidic oxide)",
    "symbol":"osmium, Os",
    "heat of vaporizatio":"378 kJ/mol",
    "magnetic ordering":"paramagnetic[2]",
    "atomic weight":" (\u00b1) (Ar)190.23(3)[1]",
    "boiling point":"5285 K \u200b(5012 \u00b0C, \u200b9054 \u00b0F)",
    "heat of fusion":"31 kJ/mol",
    "density liquid at mp":"20 g/cm3",
    "category":"  transition metal",
    "melting point":"3306 K \u200b(3033 \u00b0C, \u200b5491 \u00b0F)",
    "covalent radius":"144\u00b14 pm",
    "phase":"solid",
    "Z":"76",
    "electronegativity":" 2.2",
    "appearance":"silvery, blue cast",
    "Group, block":"group 8, d-block",
    "period":"period 6",
    "thermal conductivity":"87.6 W/(m\u00b7K)",
    "configuration":"[Xe] 4f14 5d6 6s2",
    "cas number":"7440-04-2",
    "speed of sound":"  thin rod4940 m/s (at 20 \u00b0C)"
}