{
    "covalent radius":"107\u00b13 pm",
    "per shell":"2, 8, 5",
    "Z":"15",
    "category":"  polyatomic nonmetal, sometimes considered a metalloid",
    "electronegativity":" 2.19",
    "density":" near r.t.white: 1.823 g\u00b7cm\u22123\nred: \u2248 2.2\u20132.34 g\u00b7cm\u22123\nviolet: 2.36 g\u00b7cm\u22123\nblack: 2.69 g/cm3",
    "appearance":"colourless, waxy white, yellow, scarlet, red, violet, black",
    "Group, block":"group 15 (pnictogens), p-block",
    "period":"period 3",
    "oxidation states":"5, 4, 3, 2,[2] 1,[3] \u22121, \u22122, \u22123 \u200b(a mildly acidic oxide)",
    "molar heat capacity":"white: 23.824 J/(mol\u00b7K)",
    "van der waals radius":"180 pm",
    "configuration":"[Ne] 3s2 3p3",
    "crystal structure":"\u200bbody-centred cubic (bcc)",
    "cas number":"white: 12185-10-3\nred: 7723-14-0",
    "phase":"solid",
    "magnetic ordering":"white, red, violet, black: diamagnetic[4]",
    "atomic weight":" (\u00b1) (Ar)30.973761998(5)[1]",
    "heat of fusion":"white: 0.66 kJ/mol",
    "symbol":"phosphorus, P",
    "thermal conductivity":"white: 0.236 W/(m\u00b7K)\nblack: 12.1 W/(m\u00b7K)"
}