{
    "crystal structure":"\u200bface-centered cubic (fcc)",
    "per shell":"2, 8, 18, 32, 17, 1",
    "molar heat capacity":"25.86 J/(mol\u00b7K)",
    "density":" near r.t.21.45 g/cm3",
    "oxidation states":"6, 5, 4, 3, 2, 1, \u22121, \u22122, \u22123 \u200b(a mildly basic oxide)",
    "symbol":"platinum, Pt",
    "heat of vaporizatio":"510 kJ/mol",
    "magnetic ordering":"paramagnetic",
    "atomic weight":" (\u00b1) (Ar)195.084(9)[1]",
    "boiling point":"4098 K \u200b(3825 \u00b0C, \u200b6917 \u00b0F)",
    "heat of fusion":"22.17 kJ/mol",
    "density liquid at mp":"19.77 g/cm3",
    "category":"  transition metal",
    "melting point":"2041.4 K \u200b(1768.3 \u00b0C, \u200b3214.9 \u00b0F)",
    "covalent radius":"136\u00b15 pm",
    "phase":"solid",
    "Z":"78",
    "electronegativity":" 2.28",
    "van der waals radius":"175 pm",
    "appearance":"silvery white",
    "Group, block":"group 10, d-block",
    "period":"period 6",
    "thermal conductivity":"71.6 W/(m\u00b7K)",
    "configuration":"[Xe] 4f14 5d9 6s1",
    "cas number":"7440-06-4",
    "speed of sound":" thin rod2800 m/s (at r.t.)"
}