{
    "crystal structure":"\u200bbody-centered cubic (bcc)",
    "per shell":"2, 8, 8, 1",
    "Z":"19",
    "density":" near r.t.0.862 g/cm3",
    "critical point":"2223 K, 16 MPa[2]",
    "oxidation states":"+1, \u22121 \u200b(a strongly basic oxide)",
    "heat of vaporizatio":"76.9 kJ/mol",
    "magnetic ordering":"paramagnetic[3]",
    "atomic weight":" (\u00b1) (Ar)39.0983(1)[1]",
    "boiling point":"1032 K \u200b(759 \u00b0C, \u200b1398 \u00b0F)",
    "heat of fusion":"2.33 kJ/mol",
    "density liquid at mp":"0.828 g/cm3",
    "appearance":"silvery gray",
    "melting point":"336.7 K \u200b(63.5 \u00b0C, \u200b146.3 \u00b0F)",
    "covalent radius":"203\u00b112 pm",
    "phase":"solid",
    "category":"  alkali metal",
    "electronegativity":" 0.82",
    "van der waals radius":"275 pm",
    "symbol":"potassium, K",
    "Group, block":"group 1 (alkali metals), s-block",
    "period":"period 4",
    "thermal conductivity":"102.5 W/(m\u00b7K)",
    "molar heat capacity":"29.6 J/(mol\u00b7K)",
    "configuration":"[Ar] 4s1",
    "cas number":"7440-09-7",
    "speed of sound":"  thin rod2000 m/s (at 20 \u00b0C)"
}