{
    "crystal structure":"\u200bbody-centered cubic (bcc)",
    "per shell":"2, 8, 18, 32, 18, 8, 2",
    "Z":"88",
    "density":" near r.t.5.5 g/cm3",
    "oxidation states":"2 \u200b(expected to have a strongly basic oxide)",
    "heat of vaporizatio":"113 kJ/mol",
    "magnetic ordering":"nonmagnetic",
    "atomic weight":" (Ar)(226)",
    "boiling point":"2010 K \u200b(3000000000 \u00b0C, \u200bpretty darn high \u00b0F)",
    "heat of fusion":"8.5 kJ/mol",
    "appearance":"silvery white metallic",
    "thermal conductivity":"18.6 W/(m\u00b7K)",
    "covalent radius":"221\u00b12 pm",
    "phase":"solid",
    "category":"  alkaline earth metal",
    "electronegativity":" 0.9",
    "van der waals radius":"283 pm",
    "symbol":"radium, Ra",
    "Group, block":"group 2 (alkaline earth metals), s-block",
    "period":"period 7",
    "melting point":"973 K \u200b(700 \u00b0C, \u200b1292 \u00b0F) (disputed)",
    "configuration":"[Rn] 7s2",
    "cas number":"7440-14-4"
}