{
    "density liquid at bp":"4.4 g/cm3",
    "crystal structure":"\u200bface-centered cubic (fcc)",
    "per shell":"2, 8, 18, 32, 18, 8",
    "Z":"86",
    "density":" at stp (0 \u00b0C and 101.325 kPa)9.73 g/L",
    "critical point":"377 K, 6.28 MPa[1]",
    "oxidation states":"6, 2, 0",
    "heat of vaporizatio":"18.10 kJ/mol",
    "magnetic ordering":"non-magnetic",
    "atomic weight":" (Ar)(222)",
    "boiling point":"211.5 K \u200b(\u221261.7 \u00b0C, \u200b\u221279.1 \u00b0F)",
    "heat of fusion":"3.247 kJ/mol",
    "appearance":"colorless gas, occasionally glows green or red in discharge tubes",
    "melting point":"202 K \u200b(\u221271 \u00b0C, \u200b\u221296 \u00b0F)",
    "covalent radius":"150 pm",
    "phase":"gas",
    "category":"  noble gas",
    "electronegativity":" 2.2",
    "van der waals radius":"220 pm",
    "symbol":"radon, Rn",
    "Group, block":"group 18 (noble gases), p-block",
    "period":"period 6",
    "thermal conductivity":"3.61\u00d710\u22123  W/(m\u00b7K)",
    "molar heat capacity":"5R/2 = 20.786 J/(mol\u00b7K)",
    "configuration":"[Xe] 4f14 5d10 6s2 6p6",
    "cas number":"10043-92-2"
}