{
    "crystal structure":"\u200bface-centered cubic (fcc)",
    "per shell":"2, 8, 18, 16, 1",
    "molar heat capacity":"24.98 J/(mol\u00b7K)",
    "density":" near r.t.12.41 g/cm3",
    "oxidation states":"6, 5, 4, 3, 2, 1,[2] \u22121, \u22123 \u200b(an amphoteric oxide)",
    "symbol":"rhodium, Rh",
    "heat of vaporizatio":"493 kJ/mol",
    "magnetic ordering":"paramagnetic[3]",
    "atomic weight":" (\u00b1) (Ar)102.90550(2)[1]",
    "boiling point":"3968 K \u200b(3695 \u00b0C, \u200b6683 \u00b0F)",
    "heat of fusion":"26.59 kJ/mol",
    "density liquid at mp":"10.7 g/cm3",
    "category":"  transition metal",
    "melting point":"2237 K \u200b(1964 \u00b0C, \u200b3567 \u00b0F)",
    "covalent radius":"142\u00b17 pm",
    "phase":"solid",
    "Z":"45",
    "electronegativity":" 2.28",
    "appearance":"silvery white metallic",
    "Group, block":"group 9, d-block",
    "period":"period 5",
    "thermal conductivity":"150 W/(m\u00b7K)",
    "configuration":"[Kr] 4d8 5s1",
    "cas number":"7440-16-6",
    "speed of sound":"  thin rod4700 m/s (at 20 \u00b0C)"
}