{
    "covalent radius":"157 pm (estimated)[1]",
    "per shell":"2, 8, 18, 32, 32, 10, 2",
    "category":"  transition metal",
    "Z":"104",
    "density":" near r.t.23.2 g/cm3 (predicted)[1][2][3]",
    "Group, block":"group 4, d-block",
    "boiling point":"5800 K \u200b(5500 \u00b0C, \u200b9900 \u00b0F) (predicted)[1][2]",
    "period":"period 7",
    "oxidation states":"4,[1] (3), (2)[2][3] \u200b(parenthesized numbers are predictions)",
    "configuration":"[Rn] 5f14 6d2 7s2[1][2]",
    "crystal structure":"\u200bhexagonal close-packed (hcp)\n(predicted)[4]",
    "cas number":"53850-36-5",
    "phase":"solid (predicted)[1][2]",
    "atomic weight":" (Ar)[267]",
    "symbol":"rutherfordium, Rf",
    "melting point":"2400 K \u200b(2100 \u00b0C, \u200b3800 \u00b0F) (predicted)[1][2]"
}