{
    "crystal structure":"\u200bhexagonal close-packed (hcp)",
    "per shell":"2, 8, 9, 2",
    "molar heat capacity":"25.52 J/(mol\u00b7K)",
    "density":" near r.t.2.985 g/cm3",
    "oxidation states":"3, 2,[2] 1[3] \u200b(an amphoteric oxide)",
    "symbol":"scandium, Sc",
    "heat of vaporizatio":"332.7 kJ/mol",
    "magnetic ordering":"paramagnetic",
    "atomic weight":" (\u00b1) (Ar)44.955908(5)[1]",
    "boiling point":"3109 K \u200b(2836 \u00b0C, \u200b5136 \u00b0F)",
    "heat of fusion":"14.1 kJ/mol",
    "density liquid at mp":"2.80 g/cm3",
    "category":"  transition metal",
    "melting point":"1814 K \u200b(1541 \u00b0C, \u200b2806 \u00b0F)",
    "covalent radius":"170\u00b17 pm",
    "phase":"solid",
    "Z":"21",
    "electronegativity":" 1.36",
    "van der waals radius":"211 pm",
    "appearance":"silvery white",
    "Group, block":"group 3, d-block",
    "period":"period 4",
    "thermal conductivity":"15.8 W/(m\u00b7K)",
    "configuration":"[Ar] 3d1 4s2",
    "cas number":"7440-20-2"
}