{
    "crystal structure":"\u200bface-centered diamond-cubic",
    "per shell":"2, 8, 4",
    "molar heat capacity":"19.789 J/(mol\u00b7K)",
    "density":" near r.t.2.3290 g/cm3",
    "oxidation states":"4, 3, 2, 1[3] \u22121, \u22122, \u22123, \u22124 \u200b(an amphoteric oxide)",
    "symbol":"silicon, Si",
    "heat of vaporizatio":"383 kJ/mol",
    "magnetic ordering":"diamagnetic[5]",
    "atomic weight":" (Ar)28.085[1] (28.084\u201328.086)[2]",
    "boiling point":"3538 K \u200b(3265 \u00b0C, \u200b5909 \u00b0F)",
    "heat of fusion":"50.21 kJ/mol",
    "density liquid at mp":"2.57 g/cm3",
    "category":"  metalloid",
    "melting point":"1687 K \u200b(1414 \u00b0C, \u200b2577 \u00b0F)",
    "covalent radius":"111 pm",
    "phase":"solid",
    "Z":"14",
    "electronegativity":" 1.90",
    "van der waals radius":"210 pm",
    "appearance":"crystalline, reflective with bluish-tinged faces",
    "Group, block":"group 14 (carbon group), p-block",
    "period":"period 3",
    "thermal conductivity":"149 W/(m\u00b7K)",
    "configuration":"[Ne] 3s2 3p2",
    "cas number":"7440-21-3",
    "speed of sound":"  thin rod8433 m/s (at 20 \u00b0C)"
}