{
    "crystal structure":"\u200bface-centered cubic (fcc)",
    "per shell":"2, 8, 18, 18, 1",
    "molar heat capacity":"25.350 J/(mol\u00b7K)",
    "density":" near r.t.10.49 g/cm3",
    "oxidation states":"\u22122, \u22121, 1, 2, 3, 4 \u200b(an amphoteric oxide)",
    "symbol":"silver, Ag",
    "heat of vaporizatio":"254 kJ/mol",
    "magnetic ordering":"diamagnetic[2]",
    "atomic weight":" (\u00b1) (Ar)107.8682(2)[1]",
    "boiling point":"2435 K \u200b(2162 \u00b0C, \u200b3924 \u00b0F)",
    "heat of fusion":"11.28 kJ/mol",
    "density liquid at mp":"9.320 g/cm3",
    "category":"  transition metal",
    "melting point":"1234.93 K \u200b(961.78 \u00b0C, \u200b1763.2 \u00b0F)",
    "covalent radius":"145\u00b15 pm",
    "phase":"solid",
    "Z":"47",
    "electronegativity":" 1.93",
    "van der waals radius":"172 pm",
    "appearance":"lustrous white metal",
    "Group, block":"group 11, d-block",
    "period":"period 5",
    "thermal conductivity":"429 W/(m\u00b7K)",
    "configuration":"[Kr] 4d10 5s1",
    "cas number":"7440-22-4",
    "speed of sound":" thin rod2680 m/s (at r.t.)"
}