{
    "crystal structure":"\u200bface-centered cubic (fcc)",
    "per shell":"2, 8, 18, 8, 2",
    "molar heat capacity":"26.4 J/(mol\u00b7K)",
    "density":" near r.t.2.64 g/cm3",
    "oxidation states":"2, 1[3] \u200b(a strongly basic oxide)",
    "symbol":"strontium, Sr",
    "heat of vaporizatio":"141 kJ/mol",
    "magnetic ordering":"paramagnetic",
    "atomic weight":" (\u00b1) (Ar)87.62(1)[2]",
    "boiling point":"1650 K \u200b(1377 \u00b0C, \u200b2511 \u00b0F)",
    "heat of fusion":"7.43 kJ/mol",
    "density liquid at mp":"2.375 g/cm3",
    "category":"  alkaline earth metal",
    "melting point":"1050 K \u200b(777 \u00b0C, \u200b1431 \u00b0F)",
    "covalent radius":"195\u00b110 pm",
    "phase":"solid",
    "Z":"38",
    "electronegativity":" 0.95",
    "van der waals radius":"249 pm",
    "appearance":"silvery white metallic; with a pale yellow tint[1]",
    "Group, block":"group 2 (alkaline earth metals), s-block",
    "period":"period 5",
    "thermal conductivity":"35.4 W/(m\u00b7K)",
    "configuration":"[Kr] 5s2",
    "cas number":"7440-24-6"
}