{
    "crystal structure":"\u200btetragonal[2]\n\u03b2-Ta",
    "per shell":"2, 8, 18, 32, 11, 2",
    "molar heat capacity":"25.36 J/(mol\u00b7K)",
    "density":" near r.t.16.69 g/cm3",
    "oxidation states":"5, 4, 3, 2, 1, \u22121, \u22123 \u200b(a mildly acidic oxide)",
    "symbol":"tantalum, Ta",
    "heat of vaporizatio":"753 kJ/mol",
    "magnetic ordering":"paramagnetic[3]",
    "atomic weight":" (\u00b1) (Ar)180.94788(2)[1]",
    "boiling point":"5731 K \u200b(5458 \u00b0C, \u200b9856 \u00b0F)",
    "heat of fusion":"36.57 kJ/mol",
    "density liquid at mp":"15 g/cm3",
    "category":"  transition metal",
    "melting point":"3290 K \u200b(3017 \u00b0C, \u200b5463 \u00b0F)",
    "covalent radius":"170\u00b18 pm",
    "phase":"solid",
    "Z":"73",
    "electronegativity":" 1.5",
    "appearance":"gray blue",
    "Group, block":"group 5, d-block",
    "period":"period 6",
    "thermal conductivity":"57.5 W/(m\u00b7K)",
    "configuration":"[Xe] 4f14 5d3 6s2",
    "cas number":"7440-25-7",
    "speed of sound":"  thin rod3400 m/s (at 20 \u00b0C)"
}