{
    "crystal structure":"\u200bhexagonal close-packed (hcp)",
    "per shell":"2, 8, 18, 27, 8, 2",
    "molar heat capacity":"28.91 J/(mol\u00b7K)",
    "density":" near r.t.8.23 g/cm3",
    "oxidation states":"4, 3, 2, 1 \u200b(a weakly basic oxide)",
    "symbol":"terbium, Tb",
    "heat of vaporizatio":"391 kJ/mol",
    "magnetic ordering":"paramagnetic at 300 K",
    "atomic weight":" (\u00b1) (Ar)158.92535(2)[1]",
    "boiling point":"3396 K \u200b(3123 \u00b0C, \u200b5653 \u00b0F)",
    "heat of fusion":"10.15 kJ/mol",
    "density liquid at mp":"7.65 g/cm3",
    "category":"  lanthanide",
    "melting point":"1629 K \u200b(1356 \u00b0C, \u200b2473 \u00b0F)",
    "covalent radius":"194\u00b15 pm",
    "phase":"solid",
    "Z":"65",
    "electronegativity":" 1.2 (?)",
    "appearance":"silvery white",
    "Group, block":"group n/a, f-block",
    "period":"period 6",
    "thermal conductivity":"11.1 W/(m\u00b7K)",
    "configuration":"[Xe] 4f9 6s2",
    "cas number":"7440-27-9",
    "speed of sound":"  thin rod2620 m/s (at 20 \u00b0C)"
}