{
    "crystal structure":"\u200bhexagonal close-packed (hcp)",
    "per shell":"2, 8, 18, 32, 18, 3",
    "molar heat capacity":"26.32 J/(mol\u00b7K)",
    "density":" near r.t.11.85 g/cm3",
    "oxidation states":"3, 2, 1, \u22121, \u22122, \u22125[3] \u200b(a mildly basic oxide)",
    "symbol":"thallium, Tl",
    "heat of vaporizatio":"165 kJ/mol",
    "magnetic ordering":"diamagnetic[4]",
    "atomic weight":" (Ar)204.38[1] (204.382\u2013204.385)[2]",
    "boiling point":"1746 K \u200b(1473 \u00b0C, \u200b2683 \u00b0F)",
    "heat of fusion":"4.14 kJ/mol",
    "density liquid at mp":"11.22 g/cm3",
    "category":"  post-transition metal",
    "melting point":"577 K \u200b(304 \u00b0C, \u200b579 \u00b0F)",
    "covalent radius":"145\u00b17 pm",
    "phase":"solid",
    "Z":"81",
    "electronegativity":" 1.62",
    "van der waals radius":"196 pm",
    "appearance":"silvery white",
    "Group, block":"group 13, p-block",
    "period":"period 6",
    "thermal conductivity":"46.1 W/(m\u00b7K)",
    "configuration":"[Xe] 4f14 5d10 6s2 6p1",
    "cas number":"7440-28-0",
    "speed of sound":"  thin rod818 m/s (at 20 \u00b0C)"
}