{
    "crystal structure":"\u200bface-centred cubic (fcc)",
    "per shell":"2, 8, 18, 32, 18, 10, 2",
    "Z":"90",
    "density":" near r.t.11.724 g/cm3",
    "oxidation states":"4, 3, 2, 1",
    "symbol":"thorium, Th",
    "magnetic ordering":"paramagnetic[2]",
    "atomic weight":" (\u00b1) (Ar)232.0377(4)[1]",
    "boiling point":"5061 K \u200b(4788 \u00b0C, \u200b8650 \u00b0F)",
    "heat of fusion":"13.81 kJ/mol",
    "appearance":"silvery, often with black tarnish",
    "thermal conductivity":"54.0 W/(m\u00b7K)",
    "covalent radius":"206\u00b16 pm",
    "phase":"solid",
    "category":"  actinide",
    "electronegativity":" 1.3",
    "speed of sound":"  thin rod2490 m/s (at 20 \u00b0C)",
    "Group, block":"group n/a, f-block",
    "period":"period 7",
    "melting point":"2023 K \u200b(1750 \u00b0C, \u200b3182 \u00b0F)",
    "molar heat capacity":"26.230 J/(mol\u00b7K)",
    "configuration":"[Rn] 6d2 7s2",
    "cas number":"7440-29-1"
}