{
    "crystal structure":"\u200bhexagonal close-packed (hcp)",
    "per shell":"2, 8, 18, 31, 8, 2",
    "molar heat capacity":"27.03 J/(mol\u00b7K)",
    "density":" near r.t.9.32 g/cm3",
    "oxidation states":"2, 3 \u200b(a basic oxide)",
    "symbol":"thulium, Tm",
    "heat of vaporizatio":"191 kJ/mol",
    "magnetic ordering":"paramagnetic (at 300 K)",
    "atomic weight":" (\u00b1) (Ar)168.93422(2)[1]",
    "boiling point":"2223 K \u200b(1950 \u00b0C, \u200b3542 \u00b0F)",
    "heat of fusion":"16.84 kJ/mol",
    "density liquid at mp":"8.56 g/cm3",
    "category":"  lanthanide",
    "melting point":"1818 K \u200b(1545 \u00b0C, \u200b2813 \u00b0F)",
    "covalent radius":"190\u00b110 pm",
    "phase":"solid",
    "Z":"69",
    "electronegativity":" 1.25",
    "appearance":"silvery gray",
    "Group, block":"group n/a, f-block",
    "period":"period 6",
    "thermal conductivity":"16.9 W/(m\u00b7K)",
    "configuration":"[Xe] 4f13 6s2",
    "cas number":"7440-30-4"
}