{
    "crystal structure":"\u200bface-centered diamond-cubic\ngray (\u03b1)",
    "per shell":"2, 8, 18, 18, 4",
    "molar heat capacity":"white, \u03b2: 27.112 J/(mol\u00b7K)",
    "density":" near r.t.white, \u03b2: 7.265 g/cm3\ngray, \u03b1: 5.769 g/cm3",
    "oxidation states":"4, 3,[2] 2, 1,[3] \u22121, \u22122, \u22123, \u22124 \u200b(an amphoteric oxide)",
    "symbol":"tin, Sn",
    "heat of vaporizatio":"white, \u03b2: 296.1 kJ/mol",
    "magnetic ordering":"gray: diamagnetic[4]\nwhite (\u03b2): paramagnetic",
    "atomic weight":" (\u00b1) (Ar)118.710(7)[1]",
    "boiling point":"2875 K \u200b(2602 \u00b0C, \u200b4716 \u00b0F)",
    "heat of fusion":"white, \u03b2: 7.03 kJ/mol",
    "density liquid at mp":"6.99 g/cm3",
    "category":"  post-transition metal",
    "melting point":"505.08 K \u200b(231.93 \u00b0C, \u200b449.47 \u00b0F)",
    "covalent radius":"139\u00b14 pm",
    "phase":"solid",
    "Z":"50",
    "electronegativity":" 1.96",
    "van der waals radius":"217 pm",
    "appearance":"silvery-white (beta, \u03b2) or gray (alpha, \u03b1)",
    "Group, block":"group 14 (carbon group), p-block",
    "period":"period 5",
    "thermal conductivity":"66.8 W/(m\u00b7K)",
    "configuration":"[Kr] 4d10 5s2 5p2",
    "cas number":"7440-31-5",
    "speed of sound":" thin rod2730 m/s (at r.t.) (rolled)"
}