{
    "crystal structure":"\u200bbody-centered cubic (bcc)",
    "per shell":"2, 8, 18, 32, 12, 2",
    "Z":"74",
    "density":" near r.t.19.25 g/cm3",
    "critical point":"13,892 K,  MPa",
    "oxidation states":"6, 5, 4, 3, 2, 1, 0, \u22121, \u22122, \u22124 \u200b(a mildly acidic oxide)",
    "heat of vaporizatio":"774 kJ/mol",
    "magnetic ordering":"paramagnetic[3]",
    "atomic weight":" (\u00b1) (Ar)183.84(1)[1]",
    "boiling point":"6203 K \u200b(5930 \u00b0C, \u200b10,706 \u00b0F)",
    "heat of fusion":"35.3 kJ/mol",
    "density liquid at mp":"17.6 g/cm3",
    "appearance":"grayish white, lustrous",
    "melting point":"3695 K \u200b(3422 \u00b0C, \u200b6192 \u00b0F)",
    "covalent radius":"162\u00b17 pm",
    "phase":"solid",
    "category":"  transition metal",
    "electronegativity":" 2.36",
    "symbol":"tungsten, W",
    "Group, block":"group 6, d-block",
    "period":"period 6",
    "thermal conductivity":"173 W/(m\u00b7K)",
    "molar heat capacity":"24.27 J/(mol\u00b7K)",
    "configuration":"[Xe] 4f14 5d4 6s2[2]",
    "cas number":"7440-33-7",
    "speed of sound":" thin rod4620 m/s (at r.t.) (annealed)"
}