{
    "covalent radius":"156\u2013158 pm (extrapolated)[4]",
    "per shell":"2, 8, 18, 32, 32, 18, 5 (predicted)",
    "category":"unknown, but probably a post-transition metal",
    "Z":"115",
    "density":" near r.t.13.5 g/cm3 (predicted)[3]",
    "Group, block":"group 15 (pnictogens), p-block",
    "boiling point":"~1400 K \u200b(~1100 \u00b0C, \u200b~2000 \u00b0F) (predicted)[2]",
    "period":"period 7",
    "oxidation states":"1, 3 \u200b(prediction)[2][3]",
    "heat of vaporizatio":"138 kJ/mol (predicted)[3]",
    "configuration":"[Rn] 5f14 6d10 7s2 7p3 (predicted)[2]",
    "cas number":"54085-64-2",
    "phase":"solid (predicted)[2]",
    "atomic weight":" (Ar)[289]",
    "heat of fusion":"5.90\u20135.98 kJ/mol (extrapolated)[4]",
    "symbol":"ununpentium, Uup",
    "melting point":"670 K \u200b(400 \u00b0C, \u200b750 \u00b0F) (predicted)[2][3]"
}