{
    "covalent radius":"156\u2013157 pm (extrapolated)[5]",
    "per shell":"2, 8, 18, 32, 32, 18, 7 (predicted)",
    "Z":"117",
    "category":"unknown, but probably a metalloid",
    "density":" near r.t.7.1\u20137.3 g/cm3 (extrapolated)[5]",
    "appearance":"semimetallic (predicted)[3]",
    "Group, block":"group 17, p-block",
    "boiling point":"883 K \u200b(610 \u00b0C, \u200b1130 \u00b0F) (predicted)[4]",
    "period":"period 7",
    "oxidation states":"\u22121, +1, +3, +5 \u200b(predicted)[3][4]",
    "configuration":"[Rn] 5f14 6d10 7s2 7p5 (predicted)[4]",
    "cas number":"54101-14-3",
    "phase":"solid (predicted)[4][5]",
    "atomic weight":" (Ar)[294]",
    "symbol":"ununseptium, Uus",
    "melting point":"623\u2013823 K \u200b(350\u2013550 \u00b0C, \u200b662\u20131022 \u00b0F) (predicted)[4]"
}