{
    "crystal structure":"\u200bbody-centered cubic (bcc)",
    "per shell":"2, 8, 11, 2",
    "molar heat capacity":"24.89 J/(mol\u00b7K)",
    "density":" near r.t.6.0 g/cm3",
    "oxidation states":"5, 4, 3, 2, 1, \u22121, \u22123 \u200b(an amphoteric oxide)",
    "symbol":"vanadium, V",
    "heat of vaporizatio":"444 kJ/mol",
    "magnetic ordering":"paramagnetic",
    "atomic weight":" (\u00b1) (Ar)50.9415(1)[1]",
    "boiling point":"3680 K \u200b(3407 \u00b0C, \u200b6165 \u00b0F)",
    "heat of fusion":"21.5 kJ/mol",
    "density liquid at mp":"5.5 g/cm3",
    "category":"  transition metal",
    "melting point":"2183 K \u200b(1910 \u00b0C, \u200b3470 \u00b0F)",
    "covalent radius":"153\u00b18 pm",
    "phase":"solid",
    "Z":"23",
    "electronegativity":" 1.63",
    "appearance":"blue-silver-grey metal",
    "Group, block":"group 5, d-block",
    "period":"period 4",
    "thermal conductivity":"30.7 W/(m\u00b7K)",
    "configuration":"[Ar] 3d3 4s2",
    "cas number":"7440-62-2",
    "speed of sound":"  thin rod4560 m/s (at 20 \u00b0C)"
}