{
    "density liquid at bp":"2.942 g/cm3[4]",
    "crystal structure":"\u200bface-centered cubic (fcc)",
    "per shell":"2, 8, 18, 18, 8",
    "Z":"54",
    "density":" at stp (0 \u00b0C and 101.325 kPa)5.894 g/L",
    "critical point":"289.733 K, 5.842 MPa[5]",
    "oxidation states":"0, +1, +2, +4, +6, +8 \u200b(rarely more than 0; a weakly acidic oxide)",
    "heat of vaporizatio":"12.64 kJ/mol",
    "magnetic ordering":"diamagnetic[7]",
    "triple point":"161.405 K, \u200b81.77 kPa[5]",
    "atomic weight":" (\u00b1) (Ar)131.293(6)[3]",
    "boiling point":"165.051 K \u200b(\u2212108.099 \u00b0C, \u200b\u2212162.578 \u00b0F)",
    "heat of fusion":"2.27 kJ/mol",
    "appearance":"colorless gas, exhibiting a blue glow when placed in a high voltage electric field",
    "melting point":"161.40 K \u200b(\u2212111.75 \u00b0C, \u200b\u2212169.15 \u00b0F)",
    "covalent radius":"140\u00b19 pm",
    "phase":"gas",
    "category":"  noble gas",
    "electronegativity":" 2.6",
    "van der waals radius":"216 pm",
    "symbol":"xenon, Xe",
    "Group, block":"group 18 (noble gases), p-block",
    "period":"period 5",
    "thermal conductivity":"5.65\u00d710\u22123 W/(m\u00b7K)",
    "molar heat capacity":"21.01[6] J/(mol\u00b7K)",
    "configuration":"[Kr] 4d10 5s2 5p6",
    "cas number":"7440-63-3",
    "speed of sound":"gas: 178 m\u00b7s\u22121\nliquid: 1090 m/s"
}