{
    "crystal structure":"\u200bhexagonal close-packed (hcp)",
    "per shell":"2, 8, 18, 10, 2",
    "molar heat capacity":"25.36 J/(mol\u00b7K)",
    "density":" near r.t.6.52 g/cm3",
    "oxidation states":"4, 3, 2, 1, \u22122[2] \u200b(an amphoteric oxide)",
    "symbol":"zirconium, Zr",
    "heat of vaporizatio":"591 kJ/mol",
    "magnetic ordering":"paramagnetic[3]",
    "atomic weight":" (\u00b1) (Ar)91.224(2)[1]",
    "boiling point":"4650 K \u200b(4377 \u00b0C, \u200b7911 \u00b0F)",
    "heat of fusion":"14 kJ/mol",
    "density liquid at mp":"5.8 g/cm3",
    "category":"  transition metal",
    "melting point":"2128 K \u200b(1855 \u00b0C, \u200b3371 \u00b0F)",
    "covalent radius":"175\u00b17 pm",
    "phase":"solid",
    "Z":"40",
    "electronegativity":" 1.33",
    "appearance":"silvery white",
    "Group, block":"group 4, d-block",
    "period":"period 5",
    "thermal conductivity":"22.6 W/(m\u00b7K)",
    "configuration":"[Kr] 4d2 5s2",
    "cas number":"7440-67-7",
    "speed of sound":"  thin rod3800 m/s (at 20 \u00b0C)"
}